# vtk DataFile Version 4.2
vtk output
ASCII
DATASET POLYDATA
FIELD FieldData 4
avtOriginalBounds 1 6 double
-64.78099823 68.087898254 -40 40 13.343600273 96.5 
MeshName 1 1 string
STL_mesh

CYCLE 1 1 int
0 
TIME 1 1 double
0 
POINTS 5488 float
-2.70457 38.4715 47.257 -3.13908 38.5823 48.3904 -3.11274 40 48.3365 
-2.69219 40 47.2406 -1.90895 38.3499 46.3913 -1.92706 40 46.4079 
-1.50767 38.3038 46.1355 -1.86832 40 46.3711 -1.48223 40 46.1252 
-0.648812 38.2277 45.8231 -0.658617 40 45.8255 0.9536 38.1742 45.9024 
-0.58411 40 45.8255 0.950421 40 45.9015 1.47246 38.1784 46.1169 
1.01513 40 45.9419 1.51132 40 46.147 2.37847 38.2007 46.8219 
2.37799 40 46.8214 5.78575 34.2246 63.4004 5.29674 35.4921 60.6272 
5.07879 40 59.3912 5.4527 40 61.5116 3.52789 38.171 50.5955 
3.13908 38.2357 48.3904 3.13908 40 48.3904 3.51094 40 50.4994 
2.41112 40 46.8892 3.93985 37.8651 52.9318 3.89939 40 52.7024 
4.37394 37.3172 55.3937 4.29654 40 54.9547 4.82611 36.5236 57.9581 
4.69159 40 57.1952 5.68695 33.205 65.8951 5.7584 40 63.7644 
5.66978 40 65.9528 4.64198 32.681 68.0217 4.78491 40 67.755 
2.76545 32.6021 69.604 4.54208 40 68.1307 2.95679 40 69.4676 
2.17446 32.6454 69.8784 2.56048 40 69.6833 2.06206 40 69.9148 
0.409514 32.8717 70.2813 0.566322 40 70.256 -1.99534 33.3545 69.9464 
0.12914 40 70.256 -1.91769 40 69.9701 -2.17 33.4005 69.8801 
-2.27942 40 69.7733 -2.42772 40 69.7174 -4.23443 34.1738 68.4931 
-4.204 40 68.5229 -5.65222 35.3081 66.0231 -4.40358 40 68.2141 
-5.64344 40 66.0514 -3.52261 38.6721 50.5655 -3.59512 40 50.9767 
-3.22941 40 48.9027 -5.29068 37.258 60.5928 -5.78575 36.3571 63.4004 
-5.78575 40 63.4004 -5.32235 40 60.7724 -5.6662 40 65.7485 
-4.81636 37.9311 57.9028 -4.8639 40 58.1724 -4.36203 38.3614 55.3261 
-4.4179 40 55.6429 -3.93 38.5936 52.876 -3.99285 40 53.2324 
-2.64667 38.5958 48.4772 -1.98848 38.4613 47.136 -2.01279 40 47.1855 
-2.64667 40 48.4772 -3.03243 38.6872 50.665 -3.02021 40 50.5957 
-5.29334 36.351 63.4872 -4.80523 37.2484 60.719 -4.66669 40 59.9333 
-5.07269 40 62.2358 -3.44224 38.6055 52.9891 -3.41552 40 52.8375 
-3.87789 38.3633 55.4598 -3.82963 40 55.1861 -4.33401 37.9233 58.0466 
-4.25097 40 57.5756 -5.16307 35.3772 65.915 -5.27672 40 63.7079 
-5.15593 40 65.9376 -3.83602 34.3282 68.1857 -3.99183 40 67.9316 
-2.15699 33.6795 69.3438 -3.81371 40 68.2072 -2.36099 40 69.2099 
-1.77879 33.5757 69.4927 -2.04418 40 69.3826 -1.71659 40 69.5115 
0.411364 33.1326 69.7798 0.157128 40 69.7577 2.15574 32.924 69.3444 
0.545355 40 69.7577 2.03166 40 69.387 2.56301 32.8998 69.1452 
2.38066 40 69.1967 2.72734 40 69.0271 4.26641 32.9958 67.6899 
4.17567 40 67.7894 5.20382 33.4841 65.7663 4.38941 40 67.4587 
5.18847 40 65.8177 2.64667 38.3165 48.4772 3.03631 38.2696 50.687 
3.12963 40 51.2163 2.75326 40 49.0817 4.80436 35.6678 60.7141 
5.29334 34.4139 63.4872 5.29334 40 63.4872 4.85201 40 60.9844 
5.21633 40 65.4479 4.33394 36.6824 58.0462 4.40722 40 58.4618 
3.88211 37.4563 55.4838 3.96625 40 55.961 3.44841 37.9833 53.0241 
3.53671 40 53.5249 2.4081 38.297 47.7507 2.62046 40 48.4236 
2.39132 40 47.7261 1.97191 38.2797 47.1179 1.9729 40 47.119 
1.49849 38.2682 46.7129 1.92136 40 47.0868 1.46721 40 46.6984 
0.692866 38.2636 46.3473 0.694923 40 46.3479 -0.7885 38.3294 46.3747 
0.633323 40 46.3479 -0.786659 40 46.3742 -1.51339 38.4001 46.723 
-0.836768 40 46.4055 -1.5319 40 46.7392 -1.98876 40 47.1364 
2.70457 -38.4715 47.257 3.13908 -38.5823 48.3904 3.11274 -40 48.3365 
2.69219 -40 47.2406 1.90895 -38.3499 46.3913 1.92706 -40 46.4079 
1.50767 -38.3038 46.1355 1.86832 -40 46.3711 1.48223 -40 46.1252 
0.648812 -38.2277 45.8231 0.658617 -40 45.8255 -0.9536 -38.1742 45.9024 
0.58411 -40 45.8255 -0.950421 -40 45.9015 -1.47246 -38.1784 46.1169 
-1.01513 -40 45.9419 -1.51132 -40 46.147 -2.37847 -38.2007 46.8219 
-2.37799 -40 46.8214 -5.78575 -34.2246 63.4004 -5.29674 -35.4921 60.6272 
-5.07879 -40 59.3912 -5.4527 -40 61.5116 -3.52789 -38.171 50.5955 
-3.13908 -38.2357 48.3904 -3.13908 -40 48.3904 -3.51094 -40 50.4994 
-2.41112 -40 46.8892 -3.93985 -37.8651 52.9318 -3.89939 -40 52.7024 
-4.37394 -37.3172 55.3937 -4.29654 -40 54.9547 -4.82611 -36.5236 57.9581 
-4.69159 -40 57.1952 -5.68695 -33.205 65.8951 -5.7584 -40 63.7644 
-5.66978 -40 65.9528 -4.64198 -32.681 68.0217 -4.78491 -40 67.755 
-2.76545 -32.6021 69.604 -4.54208 -40 68.1307 -2.95679 -40 69.4676 
-2.17446 -32.6454 69.8784 -2.56048 -40 69.6833 -2.06206 -40 69.9148 
-0.409514 -32.8717 70.2813 -0.566322 -40 70.256 1.99534 -33.3545 69.9464 
-0.12914 -40 70.256 1.91769 -40 69.9701 2.17 -33.4005 69.8801 
2.27942 -40 69.7733 2.42772 -40 69.7174 4.23443 -34.1738 68.4931 
4.204 -40 68.5229 5.65222 -35.3081 66.0231 4.40358 -40 68.2141 
5.64344 -40 66.0514 3.52261 -38.6721 50.5655 3.59512 -40 50.9767 
3.22941 -40 48.9027 5.29068 -37.258 60.5928 5.78575 -36.3571 63.4004 
5.78575 -40 63.4004 5.32235 -40 60.7724 5.6662 -40 65.7485 
4.81636 -37.9311 57.9028 4.8639 -40 58.1724 4.36203 -38.3614 55.3261 
4.4179 -40 55.6429 3.93 -38.5936 52.876 3.99285 -40 53.2324 
2.64667 -38.5958 48.4772 1.98848 -38.4613 47.136 2.01279 -40 47.1855 
2.64667 -40 48.4772 3.03243 -38.6872 50.665 3.02021 -40 50.5957 
5.29334 -36.351 63.4872 4.80523 -37.2484 60.719 4.66669 -40 59.9333 
5.07269 -40 62.2358 3.44224 -38.6055 52.9891 3.41552 -40 52.8375 
3.87789 -38.3633 55.4598 3.82963 -40 55.1861 4.33401 -37.9233 58.0466 
4.25097 -40 57.5756 5.16307 -35.3772 65.915 5.27672 -40 63.7079 
5.15593 -40 65.9376 3.83602 -34.3282 68.1857 3.99183 -40 67.9316 
2.15699 -33.6795 69.3438 3.81371 -40 68.2072 2.36099 -40 69.2099 
1.77879 -33.5757 69.4927 2.04418 -40 69.3826 1.71659 -40 69.5115 
-0.411364 -33.1326 69.7798 -0.157128 -40 69.7577 -2.15574 -32.924 69.3444 
-0.545355 -40 69.7577 -2.03166 -40 69.387 -2.56301 -32.8998 69.1452 
-2.38066 -40 69.1967 -2.72734 -40 69.0271 -4.26641 -32.9958 67.6899 
-4.17567 -40 67.7894 -5.20382 -33.4841 65.7663 -4.38941 -40 67.4587 
-5.18847 -40 65.8177 -2.64667 -38.3165 48.4772 -3.03631 -38.2696 50.687 
-3.12963 -40 51.2163 -2.75326 -40 49.0817 -4.80436 -35.6678 60.7141 
-5.29334 -34.4139 63.4872 -5.29334 -40 63.4872 -4.85201 -40 60.9844 
-5.21633 -40 65.4479 -4.33394 -36.6824 58.0462 -4.40722 -40 58.4618 
-3.88211 -37.4563 55.4838 -3.96625 -40 55.961 -3.44841 -37.9833 53.0241 
-3.53671 -40 53.5249 -2.4081 -38.297 47.7507 -2.62046 -40 48.4236 
-2.39132 -40 47.7261 -1.97191 -38.2797 47.1179 -1.9729 -40 47.119 
-1.49849 -38.2682 46.7129 -1.92136 -40 47.0868 -1.46721 -40 46.6984 
-0.692866 -38.2636 46.3473 -0.694923 -40 46.3479 0.7885 -38.3294 46.3747 
-0.633323 -40 46.3479 0.786659 -40 46.3742 1.51339 -38.4001 46.723 
0.836768 -40 46.4055 1.5319 -40 46.7392 1.98876 -40 47.1364 
31.2593 3.54146 76.2048 30.5488 6.86981 74.9511 31.4532 8.17497 76.5468 
31.4532 4.05982 76.5468 30.5836 -14.1323 75.2724 30.8591 -13 75.4986 
31.3773 -13.3916 76.6227 31.283 -14.3992 76.717 30.0994 -15.2161 75.1941 
31.0527 -15.2826 76.9473 29.3971 -16.2265 75.2798 30.7001 -16.028 77.2999 
28.4284 -17.1327 75.5812 30.3126 -16.5577 77.6874 29.7946 -17.1998 78.2054 
27.2367 -17.7763 76.1496 29.1814 -17.6098 78.8186 24.1361 -18 78.3156 
26.0116 -18 76.9459 27.8357 -18 80.1643 26.9389 -18 81.0611 
28.4515 -17.8713 79.5485 22.2193 -18 79.6271 26.1268 -18 81.8732 
20.7204 -17.3545 81.0665 24.8553 -17.5945 83.1447 24.2771 -17.3397 83.7229 
20.3153 -16.6343 81.7795 24.0419 -17.0486 83.9581 20.1269 -15.656 82.472 
23.353 -15.8752 84.647 23.1959 -15.5547 84.8041 20.1834 -14.4314 83.0887 
23.0714 -15.0921 84.9286 20.5143 -13 83.5502 22.8203 -13.4975 85.1797 
22.777 -13 85.223 22.1 -6.42639 84.7225 22.777 -8.52049 85.223 
22.4746 -3.2325 84.9995 22.777 -4.91961 85.223 22.0798 3.30826 84.7077 
22.5042 -1.43778e-06 85.0213 22.777 2.06076 85.223 22.7769 6.45762 85.2231 
22.777 -0.428703 85.223 21.2685 6.50974 84.1078 22.777 9.82106 85.223 
18.6376 13 82.1628 22.7769 13 85.2231 18.0145 14.4631 81.4753 
23.061 14.7788 84.939 23.1076 15.2352 84.8924 17.6699 15.6934 80.631 
23.1924 15.5447 84.8076 17.5751 16.6743 79.7093 23.9684 16.8511 84.0316 
24.1224 17.1514 83.8776 17.7139 17.3983 78.7615 24.2859 17.3477 83.7141 
20.8726 18 74.346 18.6575 18 76.9939 25.7573 18 82.2427 
26.4992 18 81.5008 18.0896 17.8538 77.8183 25.5334 17.9543 82.4666 
22.995 18 71.6234 27.1951 18 80.8049 25.299 17.8054 82.701 
23.8814 17.8432 70.7028 28.9812 17.5758 79.0188 29.3113 17.518 78.6887 
24.8865 17.3637 70.0788 29.6285 17.3426 78.3715 25.9079 16.6042 69.8319 
29.915 17.049 78.085 26.9306 15.5593 69.9766 30.7064 15.9627 77.2936 
30.9574 15.5263 77.0426 27.8402 14.3004 70.5162 31.1408 14.9262 76.8592 
28.5008 13 71.3378 31.3923 13.6364 76.6077 31.4532 13 76.5468 
30.4241 -13 75.7451 31.0864 -6.9008 76.9136 31.1164 -6.95217 76.8836 
30.8326 3.4903 76.4659 31.4532 1.7926 76.5468 31.2921 1.53279 76.7079 
27.1154 -17.2953 76.219 26.0116 -17.5 76.9459 28.4764 -17.2634 79.5236 
29.049 -17.147 78.951 28.1911 -16.7136 75.7172 29.5961 -16.7791 78.4039 
29.0613 -15.9072 75.4697 29.982 -16.2504 78.018 30.4101 -15.7233 77.5899 
29.7033 -15.0055 75.4156 30.7212 -15.0683 77.2788 30.1569 -14.026 75.5122 
31.0176 -13.8176 76.9824 31.0864 -13 76.9136 30.8272 -14.525 77.1728 
24.1361 -17.5 78.3156 22.2193 -17.5 79.6271 25.7573 -17.5 82.2427 
26.5387 -17.5 81.4613 21.4294 -17.3447 80.2278 25.4407 -17.4278 82.5593 
27.4035 -17.5 80.5965 20.8115 -13 83.1482 22.412 -6.33469 84.3314 
23.1345 -8.46834 84.8655 23.1344 -13 84.8656 22.8014 7.75124e-14 84.6193 
22.3668 3.36043 84.298 23.1345 -2.0951 84.8655 23.1345 -2.31848 84.8655 
22.7755 -3.17873 84.6002 23.1344 -5.04058 84.8656 20.4788 -14.2738 82.7136 
23.3375 -14.2883 84.6625 23.3945 -14.8776 84.6055 20.3883 -15.3661 82.1514 
23.504 -15.2985 84.496 20.521 -16.2471 81.5238 24.0569 -16.2444 83.9431 
24.2462 -16.6353 83.7538 20.8591 -16.907 80.8807 24.4551 -16.9038 83.5449 
24.8116 -17.1565 83.1884 25.0789 -17.346 82.9211 21.5378 6.59976 83.6851 
18.9348 13 81.7607 23.1344 13 84.8656 23.1345 9.86346 84.8655 
18.3046 14.3325 81.0882 23.1626 13.3154 84.8374 23.1345 6.57483 84.8655 
[...]
CELL_DATA 9528
FIELD FieldData 1
avtOriginalCellNumbers 2 9528 unsigned_int
0 11089 0 11090 0 11092 0 11093 0 
11097 0 11101 0 11102 0 11106 0 11107 
0 11108 0 11109 0 11110 0 11111 0 
11112 0 11120 0 11121 0 11125 0 11128 
0 11129 0 11133 0 11137 0 11138 0 
11143 0 11145 0 11146 0 11147 0 11148 
0 11149 0 11150 0 11151 0 11154 0 
11155 0 11156 0 11157 0 11158 0 11159 
0 11160 0 11163 0 11164 0 11166 0 
11168 0 11169 0 11171 0 11173 0 11174 
0 11176 0 11178 0 11179 0 11180 0 
11181 0 11182 0 11183 0 11184 0 11187 
0 11188 0 11190 0 11191 0 11193 0 
11194 0 11195 0 11265 0 11266 0 11268 
0 11269 0 11273 0 11277 0 11278 0 
11282 0 11283 0 11284 0 11285 0 11286 
0 11287 0 11288 0 11296 0 11297 0 
11301 0 11304 0 11305 0 11309 0 11313 
0 11314 0 11319 0 11321 0 11322 0 
11323 0 11324 0 11325 0 11326 0 11327 
0 11330 0 11331 0 11332 0 11333 0 
11334 0 11335 0 11336 0 11339 0 11340 
0 11342 0 11344 0 11345 0 11347 0 
11349 0 11350 0 11352 0 11354 0 11355 
0 11356 0 11357 0 11358 0 11359 0 
11360 0 11363 0 11364 0 11366 0 11367 
0 11369 0 11370 0 11371 0 8109 0 
8113 0 8114 0 8115 0 8119 0 8120 
0 8122 0 8123 0 8124 0 8139 0 
8149 0 8153 0 8154 0 8158 0 8159 
0 8160 0 8171 0 8172 0 8173 0 
8174 0 8180 0 8181 0 8185 0 8186 
0 8188 0 8189 0 8190 0 8192 0 
8205 0 8215 0 8216 0 8220 0 8221 
0 8222 0 8223 0 8232 0 8287 0 
8304 0 8305 0 8310 0 8311 0 8315 
0 8316 0 8320 0 8321 0 8322 0 
8330 0 8331 0 8332 0 8333 0 8337 
0 8338 0 8340 0 8341 0 8342 0 
8346 0 8347 0 8348 0 8357 0 8360 
0 8362 0 8363 0 8364 0 8367 0 
8368 0 8369 0 8371 0 8376 0 8380 
0 8384 0 8385 0 8386 0 8387 0 
8742 0 8745 0 8747 0 8754 0 8759 
0 8769 0 8910 0 8911 0 8913 0 
8914 0 8915 0 9381 0 9382 0 9387 
0 9399 0 9401 0 9403 0 9409 0 
9429 0 9430 0 9550 0 9553 0 9556 
0 9558 0 9560 0 9564 0 9684 0 
9687 0 9688 0 9689 0 9697 0 9698 
0 9706 0 9709 0 9715 0 8401 0 
8405 0 8406 0 8407 0 8411 0 8412 
0 8414 0 8415 0 8416 0 8431 0 
8441 0 8445 0 8446 0 8450 0 8451 
0 8452 0 8463 0 8464 0 8465 0 
8466 0 8472 0 8473 0 8477 0 8478 
0 8480 0 8481 0 8482 0 8484 0 
8497 0 8507 0 8508 0 8512 0 8513 
0 8514 0 8515 0 8524 0 8579 0 
8596 0 8597 0 8602 0 8603 0 8607 
0 8608 0 8612 0 8613 0 8614 0 
8622 0 8623 0 8624 0 8625 0 8629 
0 8630 0 8632 0 8633 0 8634 0 
8638 0 8639 0 8640 0 8649 0 8652 
0 8654 0 8655 0 8656 0 8659 0 
8660 0 8661 0 8663 0 8668 0 8672 
0 8676 0 8677 0 8678 0 8679 0 
9026 0 9029 0 9031 0 9038 0 9043 
0 9053 0 9194 0 9195 0 9197 0 
9198 0 9199 0 9849 0 9850 0 9855 
0 9867 0 9869 0 9871 0 9877 0 
9897 0 9898 0 10018 0 10021 0 10024 
0 10026 0 10028 0 10032 0 10152 0 
10155 0 10156 0 10157 0 10165 0 10166 
0 10174 0 10177 0 10183 0 830 0 
831 0 832 0 834 0 835 0 836 
0 839 0 841 0 844 0 911 0 
913 0 915 0 917 0 919 0 921 
0 923 0 925 0 927 0 929 0 
931 0 933 0 935 0 937 0 939 
0 941 0 943 0 945 0 947 0 
949 0 951 0 953 0 956 0 960 
0 1027 0 1911 0 1912 0 1913 0 
1915 0 1917 0 1919 0 1921 0 1923 
0 1925 0 1927 0 1929 0 1931 0 
1933 0 1935 0 1937 0 1939 0 1941 
0 1943 0 1946 0 1947 0 1948 0 
1950 0 1952 0 1954 0 1956 0 1958 
0 1961 0 3051 0 3052 0 3096 0 
3097 0 3098 0 3100 0 3105 0 3114 
0 3123 0 3126 0 3131 0 3133 0 
3135 0 3137 0 3139 0 3141 0 3143 
0 3145 0 3147 0 3149 0 3151 0 
3153 0 3155 0 3157 0 3159 0 3161 
0 3163 0 3165 0 3167 0 3169 0 
3171 0 3929 0 3930 0 3932 0 3934 
0 3936 0 3938 0 3940 0 3942 0 
3944 0 3946 0 3948 0 3950 0 3952 
0 3954 0 3956 0 3958 0 3960 0 
3962 0 3965 0 4019 0 4021 0 4023 
0 4025 0 4027 0 4029 0 4031 0 
4033 0 4035 0 4878 0 4879 0 4880 
0 4881 0 4883 0 4887 0 4889 0 
4892 0 4959 0 4961 0 4963 0 4966 
0 4987 0 4988 0 4989 0 4991 0 
4993 0 4995 0 4997 0 4999 0 5001 
0 5004 0 5008 0 5032 0 5035 0 
5036 0 5038 0 5040 0 5042 0 5044 
0 5046 0 5049 0 5051 0 5075 0 
5955 0 5956 0 5957 0 5959 0 5961 
0 5963 0 5965 0 5967 0 5969 0 
5971 0 5973 0 5975 0 5977 0 5979 
0 5981 0 5983 0 5985 0 5987 0 
5989 0 5991 0 5994 0 5995 0 5996 
0 5998 0 6000 0 6002 0 6004 0 
7069 0 7076 0 7078 0 7099 0 7100 
0 7144 0 7145 0 7146 0 7155 0 
7156 0 7164 0 7171 0 7174 0 7179 
0 7181 0 7183 0 7185 0 7187 0 
7189 0 7191 0 7193 0 7195 0 7197 
0 7200 0 7213 0 7214 0 7215 0 
7217 0 7219 0 7264 0 7266 0 7268 
0 7270 0 7272 0 7274 0 7942 0 
7943 0 7944 0 7946 0 7948 0 7951 
0 7977 0 7978 0 7980 0 7982 0 
7984 0 7986 0 7988 0 7990 0 8002 
0 8004 0 8006 0 8008 0 8010 0 
8012 0 8014 0 8017 0 8071 0 8073 
0 8075 0 8077 0 8079 0 8081 0 
8083 0 0 0 1 0 2 0 3 
0 4 0 5 0 6 0 7 0 
8 0 9 0 10 0 11 0 12 
0 13 0 14 0 15 0 16 0 
17 0 18 0 19 0 20 0 21 
0 22 0 23 0 24 0 25 0 
26 0 27 0 28 0 29 0 30 
0 31 0 32 0 33 0 34 0 
35 0 36 0 37 0 38 0 39 
0 40 0 41 0 42 0 43 0 
44 0 45 0 46 0 47 0 48 
0 49 0 50 0 51 0 52 0 
53 0 54 0 55 0 56 0 57 
0 58 0 59 0 60 0 61 0 
62 0 63 0 64 0 65 0 66 
0 67 0 68 0 69 0 70 0 
71 0 72 0 73 0 74 0 75 
0 76 0 77 0 78 0 79 0 
80 0 81 0 82 0 83 0 84 
0 85 0 86 0 87 0 88 0 
89 0 90 0 91 0 92 0 93 
0 94 0 95 0 96 0 97 0 
98 0 99 0 100 0 101 0 102 
0 103 0 104 0 105 0 106 0 
107 0 108 0 109 0 110 0 111 
0 112 0 113 0 114 0 115 0 
116 0 117 0 118 0 119 0 120 
0 121 0 122 0 123 0 124 0 
125 0 126 0 127 0 128 0 129 
0 130 0 131 0 132 0 133 0 
134 0 135 0 136 0 137 0 138 
0 139 0 140 0 141 0 142 0 
143 0 144 0 145 0 146 0 147 
0 148 0 149 0 150 0 151 0 
152 0 153 0 154 0 155 0 156 
0 157 0 158 0 159 0 160 0 
161 0 162 0 163 0 164 0 165 
0 166 0 167 0 168 0 169 0 
170 0 171 0 172 0 173 0 174 
0 175 0 176 0 177 0 178 0 
179 0 180 0 181 0 182 0 183 
0 184 0 185 0 186 0 187 0 
188 0 189 0 190 0 191 0 192 
0 193 0 194 0 195 0 196 0 
197 0 198 0 199 0 200 0 201 
0 202 0 203 0 204 0 205 0 
206 0 207 0 208 0 209 0 210 
0 211 0 212 0 213 0 214 0 
215 0 216 0 217 0 218 0 219 
0 220 0 221 0 222 0 223 0 
224 0 225 0 226 0 227 0 228 
0 229 0 230 0 231 0 232 0 
233 0 234 0 235 0 236 0 237 
0 238 0 239 0 240 0 241 0 
242 0 243 0 244 0 245 0 246 
0 247 0 248 0 249 0 250 0 
251 0 252 0 253 0 254 0 255 
0 256 0 257 0 258 0 259 0 
260 0 261 0 262 0 263 0 264 
0 265 0 266 0 267 0 268 0 
269 0 270 0 271 0 272 0 273 
0 274 0 275 0 276 0 277 0 
278 0 279 0 280 0 281 0 282 
0 283 0 284 0 285 0 286 0 
287 0 288 0 289 0 290 0 291 
0 292 0 293 0 294 0 295 0 
296 0 297 0 298 0 299 0 300 
0 301 0 302 0 303 0 304 0 
305 0 306 0 307 0 308 0 309 
0 310 0 311 0 312 0 313 0 
314 0 315 0 316 0 317 0 318 
0 319 0 320 0 321 0 322 0 
323 0 324 0 325 0 326 0 327 
0 328 0 329 0 330 0 331 0 
332 0 333 0 334 0 335 0 336 
0 337 0 338 0 339 0 340 0 
341 0 342 0 343 0 344 0 345 
0 346 0 347 0 348 0 349 0 
350 0 351 0 352 0 353 0 354 
0 355 0 356 0 357 0 358 0 
359 0 360 0 361 0 362 0 363 
0 364 0 365 0 366 0 367 0 
368 0 369 0 370 0 371 0 372 
0 373 0 374 0 375 0 376 0 
377 0 378 0 379 0 380 0 381 
0 382 0 383 0 384 0 385 0 
386 0 387 0 388 0 389 0 390 
0 391 0 392 0 393 0 394 0 
395 0 396 0 397 0 398 0 399 
0 400 0 401 0 402 0 403 0 
404 0 405 0 406 0 407 0 408 
0 409 0 410 0 411 0 412 0 
413 0 414 0 415 0 416 0 417 
0 418 0 419 0 420 0 421 0 
422 0 423 0 424 0 425 0 426 
0 427 0 428 0 429 0 430 0 
431 0 432 0 433 0 434 0 435 
0 436 0 437 0 438 0 439 0 
440 0 441 0 442 0 443 0 444 
0 445 0 446 0 447 0 448 0 
449 0 450 0 451 0 452 0 453 
0 454 0 455 0 456 0 457 0 
458 0 459 0 460 0 461 0 462 
0 463 0 464 0 465 0 466 0 
467 0 468 0 469 0 470 0 471 
0 472 0 473 0 474 0 475 0 
476 0 477 0 478 0 479 0 480 
0 481 0 482 0 483 0 484 0 
485 0 486 0 487 0 488 0 489 
0 490 0 491 0 492 0 493 0 
494 0 495 0 496 0 497 0 498 
0 499 0 500 0 501 0 502 0 
503 0 504 0 505 0 506 0 507 
0 508 0 509 0 510 0 511 0 
512 0 513 0 514 0 515 0 516 
0 517 0 518 0 519 0 520 0 
521 0 522 0 523 0 524 0 525 
0 526 0 527 0 528 0 529 0 
530 0 531 0 532 0 533 0 534 
0 535 0 536 0 537 0 538 0 
539 0 540 0 541 0 542 0 543 
0 544 0 545 0 546 0 547 0 
548 0 549 0 550 0 551 0 552 
0 553 0 554 0 555 0 556 0 
557 0 558 0 559 0 560 0 561 
0 562 0 563 0 564 0 565 0 
566 0 567 0 568 0 569 0 570 
0 571 0 572 0 573 0 574 0 
575 0 576 0 577 0 578 0 579 
0 580 0 581 0 582 0 583 0 
584 0 585 0 586 0 587 0 588 
0 589 0 590 0 591 0 592 0 
593 0 594 0 595 0 596 0 597 
0 598 0 599 0 600 0 601 0 
602 0 603 0 604 0 605 0 606 
0 607 0 608 0 609 0 610 0 
611 0 612 0 613 0 614 0 615 
0 616 0 617 0 618 0 619 0 
620 0 621 0 622 0 623 0 624 
0 625 0 626 0 627 0 628 0 
629 0 630 0 631 0 632 0 633 
0 634 0 635 0 636 0 637 0 
638 0 639 0 640 0 641 0 642 
0 643 0 644 0 645 0 646 0 
647 0 648 0 649 0 650 0 651 
0 652 0 653 0 654 0 655 0 
656 0 657 0 658 0 659 0 660 
0 661 0 662 0 663 0 664 0 
665 0 666 0 667 0 668 0 669 
0 670 0 671 0 672 0 673 0 
674 0 675 0 676 0 677 0 678 
0 679 0 680 0 681 0 682 0 
683 0 684 0 685 0 686 0 687 
0 688 0 689 0 690 0 691 0 
692 0 693 0 694 0 695 0 696 
0 697 0 698 0 699 0 700 0 
701 0 702 0 703 0 704 0 705 
0 706 0 707 0 708 0 709 0 
710 0 711 0 712 0 713 0 714 
0 715 0 716 0 717 0 718 0 
719 0 720 0 721 0 722 0 723 
0 724 0 725 0 726 0 727 0 
728 0 729 0 730 0 731 0 732 
0 733 0 734 0 735 0 736 0 
737 0 738 0 739 0 740 0 741 
0 742 0 743 0 744 0 745 0 
746 0 747 0 748 0 749 0 750 
0 751 0 752 0 753 0 754 0 
755 0 756 0 757 0 758 0 759 
0 760 0 761 0 762 0 763 0 
764 0 765 0 766 0 767 0 768 
0 769 0 770 0 771 0 772 0 
773 0 774 0 775 0 776 0 777 
0 778 0 779 0 780 0 781 0 
782 0 783 0 784 0 785 0 786 
0 787 0 788 0 789 0 790 0 
791 0 792 0 793 0 794 0 795 
0 796 0 797 0 798 0 799 0 
800 0 801 0 802 0 803 0 804 
0 805 0 806 0 807 0 808 0 
809 0 810 0 811 0 812 0 813 
0 814 0 815 0 816 0 817 0 
818 0 819 0 820 0 821 0 822 
0 823 0 824 0 825 0 826 0 
827 0 828 0 829 0 833 0 837 
0 838 0 840 0 842 0 843 0 
845 0 846 0 847 0 848 0 849 
0 850 0 851 0 852 0 853 0 
854 0 855 0 856 0 857 0 858 
0 859 0 860 0 861 0 862 0 
863 0 864 0 865 0 866 0 867 
0 868 0 869 0 870 0 871 0 
872 0 873 0 874 0 875 0 876 
0 877 0 878 0 879 0 880 0 
881 0 882 0 883 0 884 0 885 
0 886 0 887 0 888 0 889 0 
890 0 891 0 892 0 893 0 894 
0 895 0 896 0 897 0 898 0 
908 0 912 0 914 0 916 0 918 
0 920 0 922 0 924 0 926 0 
928 0 930 0 932 0 934 0 936 
0 938 0 940 0 942 0 944 0 
946 0 948 0 950 0 952 0 954 
0 955 0 957 0 958 0 959 0 
961 0 962 0 963 0 1024 0 1028 
0 1033 0 1089 0 1090 0 1091 0 
1092 0 1093 0 1094 0 1095 0 1096 
0 1097 0 1098 0 1099 0 1100 0 
1101 0 1102 0 1103 0 1104 0 1105 
0 1106 0 1107 0 1108 0 1109 0 
1110 0 1111 0 1112 0 1113 0 1114 
0 1115 0 1116 0 1117 0 1118 0 
1119 0 1120 0 1121 0 1122 0 1123 
0 1124 0 1125 0 1126 0 1127 0 
1128 0 1129 0 1130 0 1131 0 1132 
0 1133 0 1134 0 1135 0 1136 0 
1137 0 1138 0 1139 0 1140 0 1141 
0 1142 0 1143 0 1144 0 1145 0 
1146 0 1147 0 1148 0 1149 0 1150 
0 1151 0 1152 0 1153 0 1154 0 
1155 0 1156 0 1157 0 1158 0 1159 
0 1160 0 1161 0 1162 0 1163 0 
1164 0 1165 0 1166 0 1167 0 1168 
0 1169 0 1170 0 1171 0 1172 0 
1173 0 1174 0 1175 0 1176 0 1177 
0 1178 0 1179 0 1180 0 1181 0 
1182 0 1183 0 1184 0 1185 0 1186 
0 1187 0 1188 0 1189 0 1190 0 
1191 0 1192 0 1193 0 1194 0 1195 
0 1196 0 1197 0 1198 0 1199 0 
1200 0 1201 0 1202 0 1203 0 1204 
0 1205 0 1206 0 1207 0 1208 0 
1209 0 1210 0 1211 0 1212 0 1213 
0 1214 0 1215 0 1216 0 1217 0 
1218 0 1219 0 1220 0 1221 0 1222 
0 1223 0 1224 0 1225 0 1226 0 
1227 0 1228 0 1229 0 1230 0 1231 
0 1232 0 1233 0 1234 0 1235 0 
1236 0 1237 0 1238 0 1239 0 1240 
0 1241 0 1242 0 1243 0 1244 0 
1245 0 1246 0 1247 0 1248 0 1249 
0 1250 0 1251 0 1252 0 1253 0 
1254 0 1255 0 1256 0 1257 0 1258 
0 1259 0 1260 0 1261 0 1262 0 
1263 0 1264 0 1265 0 1266 0 1267 
0 1268 0 1269 0 1270 0 1271 0 
1272 0 1273 0 1274 0 1275 0 1276 
0 1277 0 1278 0 1279 0 1280 0 
1281 0 1282 0 1283 0 1284 0 1285 
0 1286 0 1287 0 1288 0 1289 0 
1290 0 1291 0 1292 0 1293 0 1294 
0 1295 0 1296 0 1297 0 1298 0 
1299 0 1300 0 1301 0 1302 0 1303 
0 1304 0 1305 0 1306 0 1307 0 
1308 0 1309 0 1310 0 1311 0 1312 
0 1313 0 1314 0 1315 0 1316 0 
1317 0 1318 0 1319 0 1320 0 1321 
0 1322 0 1323 0 1324 0 1325 0 
1326 0 1327 0 1328 0 1329 0 1330 
0 1331 0 1332 0 1333 0 1334 0 
1335 0 1336 0 1337 0 1338 0 1339 
0 1340 0 1341 0 1342 0 1343 0 
1344 0 1345 0 1346 0 1347 0 1348 
0 1349 0 1350 0 1351 0 1352 0 
1353 0 1354 0 1355 0 1356 0 1357 
0 1358 0 1359 0 1360 0 1361 0 
1362 0 1363 0 1364 0 1365 0 1366 
0 1367 0 1368 0 1369 0 1370 0 
1371 0 1372 0 1373 0 1374 0 1375 
0 1376 0 1377 0 1378 0 1379 0 
1380 0 1381 0 1382 0 1383 0 1384 
0 1385 0 1386 0 1387 0 1388 0 
1389 0 1390 0 1391 0 1392 0 1393 
0 1394 0 1395 0 1396 0 1397 0 
1398 0 1399 0 1400 0 1401 0 1402 
0 1403 0 1404 0 1405 0 1406 0 
1407 0 1408 0 1409 0 1410 0 1411 
0 1412 0 1413 0 1414 0 1415 0 
1416 0 1417 0 1418 0 1419 0 1420 
0 1421 0 1422 0 1423 0 1424 0 
1425 0 1426 0 1427 0 1428 0 1429 
0 1430 0 1431 0 1432 0 1433 0 
1434 0 1435 0 1436 0 1437 0 1438 
0 1439 0 1440 0 1441 0 1442 0 
1443 0 1444 0 1445 0 1446 0 1447 
0 1448 0 1449 0 1450 0 1451 0 
1452 0 1453 0 1454 0 1455 0 1456 
0 1457 0 1458 0 1459 0 1460 0 
1461 0 1462 0 1463 0 1464 0 1465 
0 1466 0 1467 0 1468 0 1469 0 
1470 0 1471 0 1472 0 1473 0 1474 
0 1475 0 1476 0 1477 0 1478 0 
1479 0 1480 0 1481 0 1482 0 1483 
0 1484 0 1485 0 1486 0 1487 0 
1488 0 1489 0 1490 0 1491 0 1492 
0 1493 0 1494 0 1495 0 1496 0 
1497 0 1498 0 1499 0 1500 0 1501 
0 1502 0 1503 0 1504 0 1505 0 
1506 0 1507 0 1508 0 1509 0 1510 
0 1511 0 1512 0 1513 0 1514 0 
1515 0 1516 0 1517 0 1518 0 1519 
0 1520 0 1521 0 1522 0 1523 0 
1524 0 1525 0 1526 0 1527 0 1528 
0 1529 0 1530 0 1531 0 1532 0 
1533 0 1534 0 1535 0 1536 0 1537 
0 1538 0 1539 0 1540 0 1541 0 
1542 0 1543 0 1544 0 1545 0 1546 
0 1547 0 1548 0 1549 0 1550 0 
1551 0 1552 0 1553 0 1554 0 1555 
0 1556 0 1557 0 1558 0 1559 0 
1560 0 1561 0 1562 0 1563 0 1564 
0 1565 0 1566 0 1567 0 1568 0 
1569 0 1570 0 1571 0 1572 0 1573 
0 1574 0 1575 0 1576 0 1577 0 
1578 0 1579 0 1580 0 1581 0 1582 
0 1583 0 1584 0 1585 0 1586 0 
1587 0 1588 0 1589 0 1590 0 1591 
0 1592 0 1593 0 1594 0 1595 0 
1596 0 1597 0 1598 0 1599 0 1600 
0 1601 0 1602 0 1603 0 1604 0 
1605 0 1606 0 1607 0 1608 0 1609 
0 1610 0 1611 0 1612 0 1613 0 
1614 0 1615 0 1616 0 1617 0 1618 
0 1619 0 1620 0 1621 0 1622 0 
1623 0 1624 0 1625 0 1626 0 1627 
0 1628 0 1629 0 1630 0 1631 0 
1632 0 1633 0 1634 0 1635 0 1636 
0 1637 0 1638 0 1639 0 1640 0 
1641 0 1642 0 1643 0 1644 0 1645 
0 1646 0 1647 0 1648 0 1649 0 
1650 0 1651 0 1652 0 1653 0 1654 
0 1655 0 1656 0 1657 0 1658 0 
1659 0 1660 0 1661 0 1662 0 1663 
0 1664 0 1665 0 1666 0 1667 0 
1668 0 1669 0 1670 0 1671 0 1672 
0 1673 0 1674 0 1675 0 1676 0 
1677 0 1678 0 1679 0 1680 0 1681 
0 1682 0 1683 0 1684 0 1685 0 
1686 0 1687 0 1688 0 1689 0 1690 
0 1691 0 1692 0 1693 0 1694 0 
1695 0 1696 0 1697 0 1698 0 1699 
0 1700 0 1701 0 1702 0 1703 0 
1704 0 1705 0 1706 0 1707 0 1708 
0 1709 0 1710 0 1711 0 1712 0 
1713 0 1714 0 1715 0 1716 0 1717 
0 1718 0 1719 0 1720 0 1721 0 
1722 0 1723 0 1724 0 1725 0 1726 
0 1727 0 1728 0 1729 0 1730 0 
1731 0 1732 0 1733 0 1734 0 1735 
0 1736 0 1737 0 1738 0 1739 0 
1740 0 1741 0 1742 0 1743 0 1744 
0 1745 0 1746 0 1747 0 1748 0 
1749 0 1750 0 1751 0 1752 0 1753 
0 1754 0 1755 0 1756 0 1757 0 
1758 0 1759 0 1760 0 1761 0 1762 
0 1763 0 1764 0 1765 0 1766 0 
1767 0 1768 0 1769 0 1770 0 1771 
0 1772 0 1773 0 1774 0 1775 0 
1776 0 1777 0 1778 0 1779 0 1780 
0 1781 0 1782 0 1783 0 1784 0 
1785 0 1786 0 1787 0 1788 0 1789 
0 1790 0 1791 0 1792 0 1793 0 
1794 0 1795 0 1796 0 1797 0 1798 
0 1799 0 1800 0 1801 0 1802 0 
1803 0 1804 0 1805 0 1806 0 1807 
0 1808 0 1809 0 1810 0 1811 0 
1812 0 1813 0 1814 0 1815 0 1816 
0 1817 0 1818 0 1819 0 1820 0 
1821 0 1822 0 1823 0 1824 0 1825 
0 1826 0 1827 0 1828 0 1829 0 
1830 0 1831 0 1832 0 1833 0 1834 
0 1835 0 1836 0 1837 0 1838 0 
1839 0 1840 0 1841 0 1842 0 1843 
0 1844 0 1845 0 1846 0 1847 0 
1848 0 1849 0 1850 0 1851 0 1852 
0 1853 0 1854 0 1855 0 1856 0 
1857 0 1858 0 1859 0 1860 0 1861 
0 1862 0 1863 0 1864 0 1865 0 
1866 0 1867 0 1868 0 1869 0 1870 
0 1871 0 1872 0 1873 0 1874 0 
1875 0 1876 0 1877 0 1878 0 1879 
0 1880 0 1881 0 1882 0 1883 0 
1884 0 1885 0 1886 0 1887 0 1888 
0 1889 0 1890 0 1891 0 1892 0 
1893 0 1894 0 1895 0 1896 0 1897 
0 1898 0 1899 0 1900 0 1901 0 
1902 0 1903 0 1904 0 1905 0 1906 
0 1907 0 1908 0 1909 0 1910 0 
1914 0 1916 0 1918 0 1920 0 1922 
0 1924 0 1926 0 1928 0 1930 0 
1932 0 1934 0 1936 0 1938 0 1940 
0 1942 0 1944 0 1945 0 1949 0 
1951 0 1953 0 1955 0 1957 0 1959 
0 1960 0 1962 0 1963 0 1964 0 
2002 0 2003 0 2076 0 2077 0 2078 
0 2079 0 2080 0 2081 0 2082 0 
2083 0 2084 0 2085 0 2086 0 2087 
0 2088 0 2089 0 2090 0 2091 0 
2092 0 2093 0 2094 0 2095 0 2096 
0 2097 0 2098 0 2099 0 2100 0 
2101 0 2102 0 2103 0 2104 0 2105 
0 2106 0 2107 0 2108 0 2109 0 
2110 0 2111 0 2112 0 2113 0 2114 
0 2115 0 2116 0 2117 0 2118 0 
2119 0 2120 0 2121 0 2122 0 2123 
0 2124 0 2125 0 2126 0 2127 0 
2128 0 2129 0 2130 0 2131 0 2132 
0 2133 0 2134 0 2135 0 2136 0 
2137 0 2138 0 2139 0 2140 0 2141 
0 2142 0 2143 0 2144 0 2145 0 
2146 0 2147 0 2148 0 2149 0 2150 
0 2151 0 2152 0 2153 0 2154 0 
2155 0 2156 0 2157 0 2158 0 2159 
0 2160 0 2161 0 2162 0 2163 0 
2164 0 2165 0 2166 0 2167 0 2168 
0 2169 0 2170 0 2171 0 2172 0 
2173 0 2174 0 2175 0 2176 0 2177 
0 2178 0 2179 0 2180 0 2181 0 
2182 0 2183 0 2184 0 2185 0 2186 
0 2187 0 2188 0 2189 0 2190 0 
2191 0 2192 0 2193 0 2194 0 2195 
0 2196 0 2197 0 2198 0 2199 0 
2200 0 2201 0 2202 0 2203 0 2204 
0 2205 0 2206 0 2207 0 2208 0 
2209 0 2210 0 2211 0 2212 0 2213 
0 2214 0 2215 0 2216 0 2217 0 
2218 0 2219 0 2220 0 2221 0 2222 
0 2223 0 2224 0 2225 0 2226 0 
2227 0 2228 0 2229 0 2230 0 2231 
0 2232 0 2233 0 2234 0 2235 0 
2236 0 2237 0 2238 0 2239 0 2240 
0 2241 0 2242 0 2243 0 2244 0 
2245 0 2246 0 2247 0 2248 0 2249 
0 2250 0 2251 0 2252 0 2253 0 
2254 0 2255 0 2256 0 2257 0 2258 
0 2259 0 2260 0 2261 0 2262 0 
2263 0 2264 0 2265 0 2266 0 2267 
0 2268 0 2269 0 2270 0 2271 0 
2272 0 2273 0 2274 0 2275 0 2276 
0 2277 0 2278 0 2279 0 2280 0 
2281 0 2282 0 2283 0 2284 0 2285 
0 2286 0 2287 0 2288 0 2289 0 
2290 0 2291 0 2292 0 2293 0 2294 
0 2295 0 2296 0 2297 0 2298 0 
2299 0 2300 0 2301 0 2302 0 2303 
0 2304 0 2305 0 2306 0 2307 0 
2308 0 2309 0 2310 0 2311 0 2312 
0 2313 0 2314 0 2315 0 2316 0 
2317 0 2318 0 2319 0 2320 0 2321 
0 2322 0 2323 0 2324 0 2325 0 
2326 0 2327 0 2328 0 2329 0 2330 
0 2331 0 2332 0 2333 0 2334 0 
2335 0 2336 0 2337 0 2338 0 2339 
0 2340 0 2341 0 2342 0 2343 0 
2344 0 2345 0 2346 0 2347 0 2348 
0 2349 0 2350 0 2351 0 2352 0 
2353 0 2354 0 2355 0 2356 0 2357 
0 2358 0 2359 0 2360 0 2361 0 
2362 0 2363 0 2364 0 2365 0 2366 
0 2367 0 2368 0 2369 0 2370 0 
2371 0 2372 0 2373 0 2374 0 2375 
0 2376 0 2377 0 2378 0 2379 0 
2380 0 2381 0 2382 0 2383 0 2384 
0 2385 0 2386 0 2387 0 2388 0 
2389 0 2390 0 2391 0 2392 0 2393 
0 2394 0 2395 0 2396 0 2397 0 
2398 0 2399 0 2400 0 2401 0 2402 
0 2403 0 2404 0 2405 0 2406 0 
2407 0 2408 0 2409 0 2410 0 2411 
0 2412 0 2413 0 2414 0 2415 0 
2416 0 2417 0 2418 0 2419 0 2420 
0 2421 0 2422 0 2423 0 2424 0 
2425 0 2426 0 2427 0 2428 0 2429 
0 2430 0 2431 0 2432 0 2433 0 
2434 0 2435 0 2436 0 2437 0 2438 
0 2439 0 2440 0 2441 0 2442 0 
2443 0 2444 0 2445 0 2446 0 2447 
0 2448 0 2449 0 2450 0 2451 0 
2452 0 2453 0 2454 0 2455 0 2456 
0 2457 0 2458 0 2459 0 2460 0 
2461 0 2462 0 2463 0 2464 0 2465 
0 2466 0 2467 0 2468 0 2469 0 
2470 0 2471 0 2472 0 2473 0 2474 
0 2475 0 2476 0 2477 0 2478 0 
2479 0 2480 0 2481 0 2482 0 2483 
0 2484 0 2485 0 2486 0 2487 0 
2488 0 2489 0 2490 0 2491 0 2492 
0 2493 0 2494 0 2495 0 2496 0 
2497 0 2498 0 2499 0 2500 0 2501 
0 2502 0 2503 0 2504 0 2505 0 
2506 0 2507 0 2508 0 2509 0 2510 
0 2511 0 2512 0 2513 0 2514 0 
2515 0 2516 0 2517 0 2518 0 2519 
0 2520 0 2521 0 2522 0 2523 0 
2524 0 2525 0 2526 0 2527 0 2528 
0 2529 0 2530 0 2531 0 2532 0 
2533 0 2534 0 2535 0 2536 0 2537 
0 2538 0 2539 0 2540 0 2541 0 
2542 0 2543 0 2544 0 2545 0 2546 
0 2547 0 2548 0 2549 0 2550 0 
2551 0 2552 0 2553 0 2554 0 2555 
0 2556 0 2557 0 2558 0 2559 0 
2560 0 2561 0 2562 0 2563 0 2564 
0 2565 0 2566 0 2567 0 2568 0 
2569 0 2570 0 2571 0 2572 0 2573 
0 2574 0 2575 0 2576 0 2577 0 
2578 0 2579 0 2580 0 2581 0 2582 
0 2583 0 2584 0 2585 0 2586 0 
2587 0 2588 0 2589 0 2590 0 2591 
0 2592 0 2593 0 2594 0 2595 0 
2596 0 2597 0 2598 0 2599 0 2600 
0 2601 0 2602 0 2603 0 2604 0 