# vtk DataFile Version 4.2
vtk output
ASCII
DATASET POLYDATA
FIELD FieldData 4
avtOriginalBounds 1 6 double
-59.749599457 59.651000977 -40 40 19.915700912 96.5 
MeshName 1 1 string
STL_mesh

CYCLE 1 1 int
0 
TIME 1 1 double
0 
POINTS 2892 float
-9.97105 -27.1613 72.797 -5.35248 -26.8389 77.5669 -9.61999 -24.9716 76.4179 
-10.3117 -25.2987 75.2841 -13.6124 -28.3386 65.8909 -13.6594 -26.2184 69.7735 
-14.2227 -26.3255 68.8447 -5.57835 -24.3125 80.8402 -8.79645 -24.5123 77.7654 
-5.05577 -21.8891 83.867 -4.67003 -21.4393 84.49 -17.2201 -27.5498 61.5588 
-16.4065 -26.49 65.2346 -17.6652 -26.4776 63.1501 -16.2696 -29.5334 58.1611 
-19.9198 -26.1947 59.4073 -20.3985 -26.1046 58.6115 -19.7572 -27.521 55.5716 
-20.6745 -26.0212 58.1516 -22.6748 -25.6329 52.3054 -22.418 -25.3565 55.2416 
-23.3042 -24.8653 53.7572 -24.5727 -24.1224 47.2647 -25.4037 -23.498 50.2332 
-25.7836 -23.1983 49.5937 -27.5243 -22.0983 44.379 -26.189 -22.9278 48.913 
-29.1022 -21.501 39.3609 -30.5641 -20.83 41.5956 -30.6493 -20.7956 41.4534 
-32.6502 -20.3725 36.9938 -30.8163 -20.7539 41.1754 -34.8223 -19.6386 32.9007 
-33.7278 -20.0346 36.3297 -35.4363 -19.4645 33.4808 -36.9931 -18.2223 28.8347 
-36.403 -18.9798 31.8633 -37.8231 -18.1072 29.4816 -35.1444 -18.3422 27.3937 
-39.2554 -17.0489 27.0731 -39.8042 -16.6196 26.1494 -38.8796 -16.2323 24.6872 
-40.1806 -16.252 25.5133 -4.65675 27.91 78.4481 -5.90257 25.7279 80.7979 
-8.80912 29.7911 74.849 -8.90943 29.102 75.7013 -7.47187 27.5204 78.1369 
-8.42408 32.0649 71.5775 -10.744 30.7363 72.6067 -9.54155 29.73 74.6327 
-8.01964 34.0765 68.1411 -12.0744 31.9372 70.3618 -11.8553 31.7797 70.7301 
-11.8993 33.7175 67.3494 -12.3497 32.1473 69.8986 -11.2959 35.3538 63.9342 
-14.7568 33.5423 65.8644 -14.1829 33.2942 66.8233 -15.0479 34.5909 63.2631 
-15.4078 33.8322 64.7763 -14.2565 35.8508 59.9361 -17.754 34.4705 60.8693 
-17.1411 34.3528 61.8883 -17.4572 35.3994 57.8521 -18.1628 34.5268 60.1905 
-16.4655 36.2773 54.5657 -20.172 34.5953 56.8615 -19.7362 34.6345 57.5817 
-19.9775 35.0265 54.4252 -20.6077 34.5441 56.142 -18.8439 35.1506 51.3368 
-22.5453 33.7306 52.9622 -22.1718 33.9667 53.5724 -21.9522 32.8737 50.5495 
-22.8131 33.3519 52.5321 -21.0567 30.9309 48.4876 -24.4354 30.2963 49.9531 
-24.0828 31.2499 50.5035 -24.8999 27.8262 49.0365 -24.9626 28.0196 49.1599 
-24.525 25.1741 48.2985 -25.4742 24.9669 48.4197 -25.0481 27.692 49.0297 
-24.4093 22.4016 48.0705 -25.7406 22.2026 48.0754 -25.5981 24.2458 48.2398 
-24.4604 19.6176 48.1712 -25.8822 19.4899 47.9359 -25.887 21.161 47.8695 
-24.5233 16.835 48.2952 -26.0372 16.7974 47.7735 -26.0568 18.2745 47.6893 
-24.4766 14.053 48.2032 -26.4331 14.1695 47.21 -26.3597 15.2669 47.2931 
-27.1451 11.7925 45.9227 -27.1991 12.106 46.014 -29.225 10.1929 42.5242 
-29.2883 10.3537 42.6163 -27.3655 11.8222 45.7484 -30.8332 9.25314 38.5625 
-31.3517 10.0337 39.211 -29.532 10.2655 42.2158 -33.2273 10.0859 35.6706 
-32.9308 10.2466 36.5891 -4.43796 -23.7257 81.6389 -4.58001 -21.0349 84.6248 
-8.75367 -24.6119 77.1463 -8.81878 -24.1272 77.7149 -6.79744 -22.7768 81.0144 
-4.56583 -21.0177 84.6477 -8.36031 -27.1544 73.7123 -11.1794 -25.0349 73.8382 
-9.55205 -24.4521 76.5122 -12.2518 -26.3067 70.6318 -12.4481 -25.4493 71.7522 
-11.6502 -28.6002 67.2006 -15.1477 -25.9129 67.2986 -14.2127 -25.7892 68.8423 
-15.1103 -27.5697 64.0899 -15.6705 -25.9572 66.4346 -18.2207 -26.6709 60.5376 
-18.5607 -25.9193 61.6479 -17.2715 -26.0018 63.7853 -20.5906 -26.2137 56.0532 
-21.1034 -25.3815 57.4192 -19.6325 -25.7702 59.8681 -22.7054 -25.1308 52.1039 
-23.3793 -24.328 53.614 -22.3055 -24.9121 55.4124 -25.5637 -22.8916 49.9406 
-25.5655 -22.8899 49.944 -24.2109 -23.8684 52.2211 -24.2267 -23.9228 47.3817 
-27.1669 -21.9019 47.2579 -25.5732 -22.8855 49.9312 -26.8696 -22.0297 44.8566 
-27.7403 -21.478 46.2937 -29.6033 -20.7722 42.248 -29.9059 -20.5973 42.6773 
-28.7233 -21.0991 44.653 -28.0642 -21.4781 40.0607 -31.5654 -20.1687 39.9147 
-30.653 -20.4242 41.4342 -31.0551 -20.4707 37.9086 -32.0477 -20.0313 39.1113 
-29.4127 -21.0566 35.9214 -33.998 -19.5805 35.8665 -33.7751 -19.6417 36.2375 
-32.6674 -19.9997 34.0936 -34.148 -19.5309 35.6163 -36.1271 -18.7265 32.0435 
-36.2328 -18.6993 32.1354 -35.2044 -19.1614 33.8543 -37.9634 -17.3982 28.393 
-38.3113 -17.3534 28.6469 -36.3841 -18.617 31.8819 -36.119 -17.5067 27.0477 
-39.7559 -16.2617 26.2168 -38.8496 -16.962 27.7418 -39.5978 -15.6653 24.707 
-40.3723 -15.6718 25.1755 -8.15427 29.5188 74.7821 -4.248 28.0114 77.7477 
-7.6394 27.2317 77.8696 -8.35075 28.0215 76.6642 -11.5729 31.5141 70.6002 
-9.73178 29.4088 74.329 -11.6518 31.1516 71.089 -4.39835 25.6422 80.7395 
-7.02406 26.5405 78.9126 -11.0429 33.4912 67.3569 -13.2855 32.2811 68.3445 
-14.3204 32.9547 66.6075 -13.9499 34.4857 63.3129 -14.5837 33.077 66.1672 
-13.2048 35.7281 59.9505 -16.8956 33.8971 62.3106 -17.079 33.9338 62.0058 
-16.4902 35.0141 59.0591 -17.2407 33.9676 61.7368 -15.5975 35.96 55.8795 
-19.2288 34.2255 58.436 -19.4396 34.2261 58.0871 -18.8175 34.9825 55.4197 
-19.6308 34.2276 57.7705 -21.121 34.0021 52.8247 -21.0137 34.0914 55.4855 
-21.7414 33.7753 54.2917 -23.5331 31.3954 50.7879 -22.5694 33.2742 52.9384 
-23.7008 31.5152 51.1268 -22.8273 18.2428 48.9235 -22.5356 21.0949 48.4467 
-25.8334 15.9523 48.1406 -25.8156 15.8266 48.1745 -25.8637 12.9604 47.7205 
-25.9618 14.6562 47.9734 -22.3223 23.9242 48.1247 -25.6802 18.9293 48.2901 
-25.6653 18.6751 48.3236 -22.3482 26.7493 48.2672 -25.5442 21.8343 48.4134 
-25.5633 21.4317 48.3959 -22.7265 29.388 49.1042 -25.2026 25.285 48.8583 
-25.3446 24.347 48.656 -24.0744 30.4511 50.5453 -24.8845 27.5729 49.3049 
-27.4468 8.82063 43.7854 -26.8722 12.0899 46.5558 -28.0073 10.4379 44.7343 
-28.957 7.96082 40.1036 -28.3132 10.4631 44.2269 -30.2513 7.4042 36.3354 
-29.9621 9.58594 41.5275 -29.9768 9.5883 41.5031 -31.3749 8.81473 37.7052 
-30.0098 9.58617 41.4485 -32.4663 8.41412 33.7527 -31.8912 9.53228 38.3354 
-32.4648 9.72836 37.3788 -33.6541 9.74187 35.0045 -33.4226 9.85599 35.7885 
13.6124 28.3386 65.8909 9.48421 29.4851 69.2427 4.87145 31.2784 70.5958 
4.50464e-15 31.1105 73.5664 4.72404e-15 28.8444 77.1495 17.2201 27.5498 61.5588 
20.8558 25.7249 58.6614 25.0264 22.5347 57.7297 28.4784 20.4342 54.7773 
31.7628 18.8396 51.213 35.2107 17.6972 47.6227 36.6443 16.3854 49.5617 
40.641 15.5611 46.0476 45 14.8229 42.5167 49.3904 13.8693 38.4978 
4.7189e-15 28.4454 77.0654 4.92576e-15 -26.4809 80.4438 4.65675 -27.91 78.4481 
8.80912 -29.7911 74.849 8.42408 -32.0649 71.5775 12.4698 -31.7286 70.5783 
4.91792e-15 -26.1043 80.3157 16.5186 -31.0471 69.4463 20.2288 -30.8993 67.037 
19.3501 -32.7161 64.125 23.1514 -31.4764 63.0718 26.474 -30.6837 60.9622 
25.406 -32.025 58.5029 29.182 -30.3431 57.4698 32.9924 -28.4314 55.8149 
36.6491 -26.1653 53.3268 40.0175 -23.2375 50.0492 42.9336 -19.9613 46.0905 
3.88648 30.6335 71.7058 7.94866 29.4738 70.1243 4.50217e-15 30.6942 73.5259 
11.6502 28.6002 67.2006 15.1103 27.5697 64.0899 18.2207 26.6709 60.5376 
21.6615 24.4757 58.9059 25.0828 22.0713 57.4334 28.121 20.2177 54.8387 
31.0373 18.7453 51.7304 35.4292 16.3365 50.4996 38.8311 15.5479 47.3198 
42.559 14.8883 44.2848 46.4229 14.1866 41.0284 50.3244 13.2556 37.4415 
8.15427 -29.5188 74.7821 4.248 -28.0114 77.7477 12.0666 -29.246 73.6584 
15.3343 -30.9617 69.5575 18.9772 -30.4902 67.9179 18.191 -32.3036 65.1215 
21.6932 -31.3987 63.7954 25.3592 -29.8787 63.1197 28.1446 -29.608 60.2635 
30.6209 -29.2382 56.8121 34.1497 -27.3472 55.0214 37.526 -25.0475 52.5318 
40.6433 -22.1562 49.3547 43.3109 -19.1012 45.5204 44.7247 -19.5131 47.0187 
4.92577e-15 -26.4806 80.4442 4.91792e-15 -26.1042 80.3159 4.72401e-15 28.8446 77.1492 
-5.42531 25.1446 81.6085 4.71887e-15 28.4455 77.0652 -5.92995 25.1869 80.7715 
-5.7137 -22.5743 82.8017 -4.60095 -21.0583 84.591 2.92486 37.0823 42.3862 
2.60134e-15 37.2211 42.4831 2.83239e-15 38.2805 46.2564 2.83239e-15 37.9 46.2564 
1.71926 38.2728 46.8783 1.71975 37.8932 46.8787 2.67272 34.9301 38.7323 
2.47061e-15 35.8783 40.3482 2.57929e-15 36.6297 42.1231 2.67858e-15 37.3003 43.7445 
2.52319 31.3048 36.5654 2.38287e-15 34.1811 38.9153 2.44831e-15 34.975 39.984 
2.32872e-15 31.993 38.0309 2.37034e-15 32.8022 38.7106 2.5063 27.0572 36.3208 
2.31056e-15 28.8318 37.7343 2.33676e-15 29.4303 38.1621 2.34798e-15 25.0449 38.3454 
2.34621e-15 27.2205 38.3166 2.5747 22.9098 37.312 2.43973e-15 21.6796 39.8439 
2.37638e-15 25.0348 38.8093 2.71964 19.2095 39.4125 2.51303e-15 19.9919 41.0409 
2.49494e-15 21.1135 40.7455 2.42495e-15 23.0324 39.6024 2.92406 16.1451 42.3749 
2.63086e-15 17.8804 42.9653 2.60791e-15 18.8822 42.5904 2.74966e-15 16.0402 44.9053 
3.14934 13.3992 45.6396 2.90575e-15 13.6712 47.4544 2.81101e-15 15.6803 45.9073 
3.3725 10.6175 48.8736 3.05752e-15 11.1912 49.9331 2.99836e-15 12.7541 48.9669 
3.20781e-15 8.32689 52.3876 3.1504e-15 10.0851 51.45 3.58117 7.60796 51.8975 
3.29413e-15 6.29482 53.7972 3.25241e-15 7.99122 53.1159 3.7509 4.13756 54.3572 
3.37205e-15 3.40367 55.0698 3.33893e-15 5.7695 54.5289 2.6072 -3.82078e-15 55.4078 
3.3984e-15 -3.3984e-15 55.5 3.38419e-15 4.046 55.2681 3.2858 -3.90763e-15 55.3531 
3.81604 -3.98723e-15 55.3012 3.26019 -3.93284 54.9215 3.39132e-15 -1.83419 55.3844 
3.42136e-15 -1.30526e-06 55.875 6.42844 -3.98047 54.6205 5.14128 -4.0882e-15 55.1356 
7.31524 4.03073 53.4073 6.46323 -2.80143e-15 54.9161 7.4929 -1.53542e-15 54.7044 
6.93536 7.2439 50.6339 6.49759 10.0466 47.4379 6.03908 12.6637 44.0905 
5.58281 15.3018 40.7593 5.1815 18.3771 37.8294 4.91074 22.1406 35.8526 
4.78858 26.3102 34.9607 4.84902 30.5313 35.4018 5.16609 34.061 37.7167 
3.21088 38.0559 46.531 5.66019 36.2618 41.324 2.64667 38.3165 48.4772 
3.50442 38.1655 50.785 6.22266 37.2635 45.4305 2.3255 38.2929 47.5968 
3.74102 37.6524 54.6836 3.79363 37.5819 54.9819 6.80209 37.2242 49.6608 
3.16241 38.2049 51.4021 4.17373 36.5733 57.1376 7.37195 36.4353 53.8213 
4.18242 36.966 57.1869 3.73249 37.2671 54.6352 3.15731 37.8236 51.3732 
2.64667 37.937 48.4772 2.65002 37.9376 48.4962 2.3255 37.9137 47.5968 
[...]
CELL_DATA 4576
FIELD FieldData 1
avtOriginalCellNumbers 2 4576 unsigned_int
0 3745 0 3748 0 3751 0 3801 0 
3802 0 3865 0 3932 0 3933 0 4013 
0 4072 0 4164 0 4235 0 4297 0 
4365 0 4422 0 4467 0 4468 0 4693 
0 4695 0 4738 0 4740 0 4743 0 
4825 0 4828 0 4884 0 4887 0 4953 
0 4956 0 5008 0 5011 0 5084 0 
5087 0 5140 0 5142 0 5144 0 5146 
0 5148 0 5151 0 5203 0 5255 0 
5304 0 5455 0 5456 0 5461 0 5506 
0 5509 0 5597 0 5600 0 5670 0 
5738 0 5745 0 5881 0 5958 0 5961 
0 6039 0 6116 0 6119 0 6197 0 
6200 0 6280 0 6357 0 6406 0 6409 
0 6538 0 6541 0 6544 0 6625 0 
6626 0 6674 0 6675 0 6729 0 6730 
0 6774 0 6817 0 6863 0 6864 0 
6865 0 6867 0 6869 0 6871 0 6917 
0 6966 0 7018 0 7021 0 7072 0 
7075 0 174 0 175 0 239 0 240 
0 297 0 367 0 446 0 507 0 
602 0 672 0 675 0 739 0 806 
0 864 0 942 0 1105 0 1106 0 
1149 0 1152 0 1201 0 1235 0 1292 
0 1358 0 1361 0 1414 0 1487 0 
1490 0 1544 0 1596 0 1648 0 1700 
0 1855 0 1856 0 1864 0 1926 0 
2015 0 2085 0 2150 0 2155 0 2292 
0 2370 0 2445 0 2524 0 2603 0 
2683 0 2760 0 2947 0 2948 0 2994 
0 3039 0 3090 0 3144 0 3145 0 
3188 0 3234 0 3291 0 3343 0 3395 
0 3447 0 3499 0 3502 0 3804 0 
4529 0 4696 0 4699 0 4788 0 5457 
0 6548 0 6585 0 6588 0 3801 0 
4693 0 5455 0 6583 0 0 0 1 
0 2 0 3 0 4 0 5 0 
6 0 7 0 8 0 9 0 10 
0 11 0 12 0 13 0 14 0 
15 0 16 0 17 0 18 0 19 
0 20 0 21 0 22 0 23 0 
24 0 25 0 26 0 27 0 28 
0 29 0 30 0 31 0 32 0 
33 0 34 0 35 0 36 0 37 
0 38 0 39 0 40 0 41 0 
42 0 43 0 44 0 45 0 46 
0 47 0 48 0 49 0 50 0 
51 0 52 0 53 0 54 0 55 
0 56 0 57 0 58 0 59 0 
60 0 61 0 62 0 63 0 64 
0 65 0 66 0 67 0 68 0 
69 0 70 0 71 0 72 0 73 
0 74 0 75 0 76 0 77 0 
78 0 79 0 80 0 81 0 82 
0 83 0 84 0 85 0 86 0 
87 0 88 0 89 0 90 0 91 
0 92 0 93 0 94 0 95 0 
96 0 97 0 98 0 99 0 100 
0 101 0 102 0 103 0 104 0 
105 0 106 0 107 0 108 0 109 
0 110 0 111 0 112 0 113 0 
114 0 115 0 116 0 117 0 118 
0 119 0 120 0 121 0 122 0 
123 0 124 0 125 0 126 0 127 
0 128 0 129 0 130 0 131 0 
132 0 133 0 134 0 135 0 136 
0 137 0 138 0 139 0 140 0 
141 0 142 0 143 0 144 0 145 
0 146 0 147 0 148 0 149 0 
150 0 151 0 152 0 153 0 154 
0 155 0 156 0 157 0 158 0 
159 0 160 0 161 0 162 0 163 
0 164 0 165 0 166 0 167 0 
168 0 169 0 170 0 171 0 172 
0 173 0 176 0 180 0 237 0 
238 0 241 0 242 0 243 0 244 
0 245 0 246 0 247 0 248 0 
249 0 250 0 251 0 252 0 253 
0 254 0 255 0 256 0 257 0 
258 0 259 0 260 0 261 0 262 
0 263 0 264 0 265 0 266 0 
267 0 268 0 269 0 270 0 271 
0 272 0 273 0 274 0 275 0 
276 0 277 0 278 0 279 0 280 
0 281 0 282 0 283 0 284 0 
285 0 286 0 287 0 288 0 289 
0 290 0 291 0 292 0 293 0 
294 0 295 0 296 0 325 0 326 
0 327 0 328 0 329 0 330 0 
331 0 332 0 333 0 334 0 335 
0 336 0 337 0 338 0 339 0 
340 0 341 0 342 0 343 0 344 
0 345 0 346 0 347 0 348 0 
349 0 350 0 351 0 352 0 353 
0 354 0 355 0 356 0 357 0 
358 0 359 0 360 0 361 0 362 
0 363 0 364 0 365 0 366 0 
405 0 406 0 407 0 408 0 409 
0 410 0 411 0 412 0 413 0 
414 0 415 0 416 0 417 0 418 
0 419 0 420 0 421 0 422 0 
423 0 424 0 425 0 426 0 427 
0 428 0 429 0 430 0 431 0 
432 0 433 0 434 0 435 0 436 
0 437 0 438 0 439 0 440 0 
441 0 442 0 443 0 444 0 445 
0 447 0 449 0 464 0 465 0 
466 0 467 0 468 0 469 0 470 
0 471 0 472 0 473 0 474 0 
475 0 476 0 477 0 478 0 479 
0 480 0 481 0 482 0 483 0 
484 0 485 0 486 0 487 0 488 
0 489 0 490 0 491 0 492 0 
493 0 494 0 495 0 496 0 497 
0 498 0 499 0 500 0 501 0 
502 0 503 0 504 0 505 0 506 
0 508 0 510 0 558 0 559 0 
560 0 561 0 562 0 563 0 564 
0 565 0 566 0 567 0 568 0 
569 0 570 0 571 0 572 0 573 
0 574 0 575 0 576 0 577 0 
578 0 579 0 580 0 581 0 582 
0 583 0 584 0 585 0 586 0 
587 0 588 0 589 0 590 0 591 
0 592 0 593 0 594 0 595 0 
596 0 597 0 598 0 599 0 600 
0 601 0 603 0 605 0 630 0 
631 0 632 0 633 0 634 0 635 
0 636 0 637 0 638 0 639 0 
640 0 641 0 642 0 643 0 644 
0 645 0 646 0 647 0 648 0 
649 0 650 0 651 0 652 0 653 
0 654 0 655 0 656 0 657 0 
658 0 659 0 660 0 661 0 662 
0 663 0 664 0 665 0 666 0 
667 0 668 0 669 0 670 0 671 
0 673 0 674 0 677 0 695 0 
696 0 697 0 698 0 699 0 700 
0 701 0 702 0 703 0 704 0 
705 0 706 0 707 0 708 0 709 
0 710 0 711 0 712 0 713 0 
714 0 715 0 716 0 717 0 718 
0 719 0 720 0 721 0 722 0 
723 0 724 0 725 0 726 0 727 
0 728 0 729 0 730 0 731 0 
732 0 733 0 734 0 735 0 736 
0 737 0 738 0 740 0 742 0 
762 0 763 0 764 0 765 0 766 
0 767 0 768 0 769 0 770 0 
771 0 772 0 773 0 774 0 775 
0 776 0 777 0 778 0 779 0 
780 0 781 0 782 0 783 0 784 
0 785 0 786 0 787 0 788 0 
789 0 790 0 791 0 792 0 793 
0 794 0 795 0 796 0 797 0 
798 0 799 0 800 0 801 0 802 
0 803 0 804 0 805 0 807 0 
809 0 829 0 830 0 831 0 832 
0 833 0 834 0 835 0 836 0 
837 0 838 0 839 0 840 0 841 
0 842 0 843 0 844 0 845 0 
846 0 847 0 848 0 849 0 850 
0 851 0 852 0 853 0 854 0 
855 0 856 0 857 0 858 0 859 
0 860 0 861 0 862 0 863 0 
865 0 867 0 887 0 888 0 889 
0 890 0 891 0 892 0 893 0 
894 0 895 0 896 0 897 0 898 
0 899 0 900 0 901 0 902 0 
903 0 904 0 905 0 906 0 907 
0 943 0 944 0 945 0 946 0 
947 0 948 0 949 0 950 0 951 
0 952 0 955 0 956 0 957 0 
958 0 959 0 960 0 961 0 962 
0 963 0 964 0 965 0 966 0 
967 0 968 0 969 0 970 0 971 
0 972 0 973 0 974 0 975 0 
976 0 977 0 978 0 979 0 980 
0 981 0 982 0 983 0 984 0 
985 0 986 0 987 0 988 0 989 
0 990 0 991 0 992 0 993 0 
994 0 995 0 996 0 997 0 998 
0 999 0 1000 0 1001 0 1002 0 
1003 0 1004 0 1005 0 1006 0 1007 
0 1008 0 1009 0 1010 0 1011 0 
1012 0 1013 0 1014 0 1015 0 1016 
0 1017 0 1018 0 1019 0 1020 0 
1021 0 1022 0 1023 0 1024 0 1025 
0 1026 0 1027 0 1028 0 1029 0 
1030 0 1031 0 1032 0 1033 0 1034 
0 1035 0 1036 0 1037 0 1038 0 
1039 0 1040 0 1041 0 1042 0 1043 
0 1044 0 1045 0 1046 0 1047 0 
1048 0 1049 0 1050 0 1051 0 1052 
0 1053 0 1054 0 1055 0 1056 0 
1057 0 1058 0 1059 0 1060 0 1061 
0 1062 0 1063 0 1064 0 1065 0 
1066 0 1067 0 1068 0 1069 0 1070 
0 1071 0 1072 0 1073 0 1074 0 
1075 0 1076 0 1077 0 1078 0 1079 
0 1080 0 1081 0 1082 0 1083 0 
1084 0 1085 0 1086 0 1087 0 1088 
0 1089 0 1090 0 1091 0 1092 0 
1093 0 1094 0 1095 0 1096 0 1097 
0 1098 0 1099 0 1100 0 1101 0 
1102 0 1103 0 1104 0 1107 0 1111 
0 1147 0 1150 0 1151 0 1153 0 
1154 0 1155 0 1156 0 1157 0 1158 
0 1159 0 1160 0 1161 0 1162 0 
1163 0 1164 0 1165 0 1166 0 1167 
0 1168 0 1169 0 1170 0 1171 0 
1172 0 1173 0 1174 0 1175 0 1176 
0 1177 0 1178 0 1179 0 1180 0 
1181 0 1182 0 1183 0 1184 0 1185 
0 1186 0 1187 0 1188 0 1189 0 
1190 0 1191 0 1192 0 1193 0 1194 
0 1195 0 1196 0 1197 0 1198 0 
1199 0 1200 0 1202 0 1204 0 1216 
0 1232 0 1234 0 1236 0 1237 0 
1238 0 1239 0 1240 0 1241 0 1242 
0 1243 0 1244 0 1245 0 1246 0 
1247 0 1248 0 1249 0 1250 0 1251 
0 1252 0 1253 0 1254 0 1255 0 
1256 0 1257 0 1258 0 1259 0 1260 
0 1261 0 1262 0 1263 0 1264 0 
1265 0 1266 0 1267 0 1268 0 1289 
0 1291 0 1293 0 1294 0 1295 0 
1296 0 1297 0 1298 0 1299 0 1300 
0 1301 0 1302 0 1303 0 1304 0 
1305 0 1306 0 1307 0 1308 0 1309 
0 1310 0 1311 0 1312 0 1313 0 
1314 0 1315 0 1316 0 1317 0 1318 
0 1319 0 1320 0 1321 0 1322 0 
1323 0 1324 0 1356 0 1359 0 1360 
0 1362 0 1363 0 1364 0 1365 0 
1366 0 1367 0 1368 0 1369 0 1370 
0 1371 0 1372 0 1373 0 1374 0 
1375 0 1376 0 1377 0 1378 0 1379 
0 1380 0 1381 0 1382 0 1383 0 
1384 0 1385 0 1386 0 1387 0 1388 
0 1389 0 1390 0 1411 0 1413 0 
1415 0 1416 0 1417 0 1418 0 1419 
0 1420 0 1421 0 1422 0 1423 0 
1424 0 1425 0 1426 0 1427 0 1428 
0 1429 0 1430 0 1431 0 1432 0 
1433 0 1434 0 1435 0 1436 0 1437 
0 1438 0 1439 0 1440 0 1441 0 
1442 0 1443 0 1485 0 1488 0 1489 
0 1491 0 1492 0 1493 0 1494 0 
1495 0 1496 0 1497 0 1498 0 1499 
0 1500 0 1501 0 1502 0 1503 0 
1504 0 1505 0 1506 0 1507 0 1508 
0 1509 0 1510 0 1511 0 1512 0 
1513 0 1514 0 1515 0 1516 0 1517 
0 1541 0 1543 0 1545 0 1546 0 
1547 0 1548 0 1549 0 1550 0 1551 
0 1552 0 1553 0 1554 0 1555 0 
1556 0 1557 0 1558 0 1559 0 1560 
0 1561 0 1562 0 1563 0 1564 0 
1565 0 1566 0 1567 0 1568 0 1569 
0 1570 0 1571 0 1593 0 1595 0 
1597 0 1598 0 1599 0 1600 0 1601 
0 1602 0 1603 0 1604 0 1605 0 
1606 0 1607 0 1608 0 1609 0 1610 
0 1611 0 1612 0 1613 0 1614 0 
1615 0 1616 0 1617 0 1618 0 1619 
0 1620 0 1621 0 1622 0 1623 0 
1645 0 1647 0 1649 0 1650 0 1651 
0 1652 0 1653 0 1654 0 1655 0 
1656 0 1657 0 1658 0 1659 0 1660 
0 1661 0 1662 0 1663 0 1664 0 
1665 0 1666 0 1667 0 1668 0 1669 
0 1670 0 1671 0 1672 0 1673 0 
1674 0 1675 0 1697 0 1699 0 1701 
0 1702 0 1703 0 1704 0 1705 0 
1706 0 1707 0 1708 0 1709 0 1710 
0 1711 0 1712 0 1713 0 1714 0 
1715 0 1716 0 1717 0 1718 0 1719 
0 1720 0 1721 0 1722 0 1723 0 
1724 0 1725 0 1726 0 1727 0 1746 
0 1747 0 1748 0 1749 0 1750 0 
1751 0 1752 0 1753 0 1754 0 1755 
0 1756 0 1757 0 1758 0 1759 0 
1760 0 1761 0 1774 0 1775 0 1776 
0 1777 0 1778 0 1779 0 1780 0 
1781 0 1782 0 1783 0 1784 0 1785 
0 1786 0 1787 0 1788 0 1789 0 
1790 0 1791 0 1792 0 1793 0 1794 
0 1795 0 1796 0 1797 0 1798 0 
1799 0 1800 0 1801 0 1802 0 1803 
0 1804 0 1805 0 1806 0 1807 0 
1808 0 1809 0 1810 0 1811 0 1812 
0 1813 0 1814 0 1815 0 1816 0 
1817 0 1818 0 1819 0 1820 0 1821 
0 1822 0 1823 0 1824 0 1825 0 
1826 0 1827 0 1828 0 1829 0 1830 
0 1831 0 1832 0 1833 0 1834 0 
1835 0 1836 0 1837 0 1838 0 1839 
0 1840 0 1841 0 1842 0 1843 0 
1844 0 1845 0 1846 0 1847 0 1848 
0 1849 0 1850 0 1851 0 1852 0 
1853 0 1854 0 1857 0 1858 0 1859 
0 1860 0 1862 0 1863 0 1868 0 
1923 0 1925 0 1927 0 1928 0 1929 
0 1930 0 1931 0 1932 0 1933 0 
1934 0 1935 0 1936 0 1937 0 1938 
0 1939 0 1940 0 1941 0 1942 0 
1943 0 1944 0 1945 0 1946 0 1947 
0 1948 0 1949 0 1950 0 1951 0 
1952 0 1953 0 1954 0 1955 0 1956 
0 1957 0 1958 0 1959 0 1960 0 
1961 0 1962 0 1963 0 1964 0 1965 
0 1966 0 1967 0 1968 0 1969 0 
1970 0 1971 0 1972 0 1973 0 1974 
0 1975 0 1976 0 1977 0 1978 0 
1979 0 1980 0 2012 0 2014 0 2016 
0 2017 0 2018 0 2019 0 2020 0 
2021 0 2022 0 2023 0 2024 0 2025 
0 2026 0 2027 0 2028 0 2029 0 
2030 0 2031 0 2032 0 2033 0 2034 
0 2035 0 2036 0 2037 0 2038 0 
2039 0 2040 0 2041 0 2042 0 2043 
0 2044 0 2045 0 2046 0 2047 0 
2048 0 2049 0 2050 0 2051 0 2052 
0 2053 0 2054 0 2055 0 2056 0 
2057 0 2058 0 2059 0 2060 0 2061 
0 2062 0 2063 0 2064 0 2082 0 
2084 0 2086 0 2087 0 2088 0 2089 
0 2090 0 2091 0 2092 0 2093 0 
2094 0 2095 0 2096 0 2097 0 2098 
0 2099 0 2100 0 2101 0 2102 0 
2103 0 2104 0 2105 0 2106 0 2107 
0 2108 0 2109 0 2110 0 2111 0 
2112 0 2113 0 2114 0 2115 0 2116 
0 2117 0 2118 0 2119 0 2120 0 
2121 0 2122 0 2123 0 2124 0 2125 
0 2126 0 2127 0 2128 0 2129 0 
2130 0 2131 0 2132 0 2133 0 2134 
0 2149 0 2152 0 2153 0 2154 0 
2156 0 2157 0 2158 0 2159 0 2160 
0 2161 0 2162 0 2163 0 2164 0 
2165 0 2166 0 2167 0 2168 0 2169 
0 2170 0 2171 0 2172 0 2173 0 
2174 0 2175 0 2176 0 2177 0 2178 
0 2179 0 2180 0 2181 0 2182 0 
2183 0 2184 0 2185 0 2186 0 2187 
0 2188 0 2189 0 2190 0 2191 0 
2192 0 2193 0 2194 0 2195 0 2196 
0 2197 0 2198 0 2199 0 2200 0 
2201 0 2202 0 2203 0 2204 0 2205 
0 2206 0 2207 0 2208 0 2209 0 
2210 0 2211 0 2212 0 2213 0 2214 
0 2215 0 2216 0 2217 0 2218 0 
2219 0 2220 0 2221 0 2222 0 2223 
0 2224 0 2225 0 2226 0 2227 0 
2228 0 2229 0 2230 0 2231 0 2232 
0 2233 0 2234 0 2235 0 2236 0 
2237 0 2238 0 2239 0 2240 0 2241 
0 2242 0 2243 0 2244 0 2245 0 
2246 0 2247 0 2248 0 2249 0 2250 
0 2251 0 2289 0 2291 0 2293 0 
2294 0 2295 0 2296 0 2297 0 2298 
0 2299 0 2300 0 2301 0 2302 0 
2303 0 2304 0 2305 0 2306 0 2307 
0 2308 0 2309 0 2310 0 2311 0 
2312 0 2313 0 2314 0 2315 0 2316 
0 2317 0 2318 0 2319 0 2320 0 
2321 0 2322 0 2323 0 2324 0 2325 
0 2326 0 2327 0 2328 0 2329 0 
2330 0 2331 0 2332 0 2333 0 2334 
0 2335 0 2336 0 2337 0 2338 0 
2339 0 2340 0 2341 0 2367 0 2369 
0 2371 0 2372 0 2373 0 2374 0 
2375 0 2376 0 2377 0 2378 0 2379 
0 2380 0 2381 0 2382 0 2383 0 
2384 0 2385 0 2386 0 2387 0 2388 
0 2389 0 2390 0 2391 0 2392 0 
2393 0 2394 0 2395 0 2396 0 2397 
0 2398 0 2399 0 2400 0 2401 0 
2402 0 2403 0 2404 0 2405 0 2406 
0 2407 0 2408 0 2409 0 2410 0 
2411 0 2412 0 2413 0 2414 0 2415 
0 2416 0 2417 0 2418 0 2419 0 
2446 0 2447 0 2448 0 2449 0 2450 
0 2451 0 2452 0 2453 0 2454 0 
2455 0 2456 0 2457 0 2458 0 2459 
0 2460 0 2461 0 2462 0 2463 0 
2464 0 2465 0 2466 0 2467 0 2468 
0 2469 0 2470 0 2471 0 2472 0 
2473 0 2474 0 2475 0 2476 0 2477 
0 2478 0 2479 0 2480 0 2481 0 
2482 0 2483 0 2484 0 2485 0 2486 
0 2487 0 2488 0 2489 0 2490 0 
2491 0 2492 0 2493 0 2494 0 2495 
0 2496 0 2497 0 2521 0 2523 0 
2525 0 2526 0 2527 0 2528 0 2529 
0 2530 0 2531 0 2532 0 2533 0 
2534 0 2535 0 2536 0 2537 0 2538 
0 2539 0 2540 0 2541 0 2542 0 
2543 0 2544 0 2545 0 2546 0 2547 
0 2548 0 2549 0 2550 0 2551 0 
2552 0 2553 0 2554 0 2555 0 2556 
0 2557 0 2558 0 2559 0 2560 0 
2561 0 2562 0 2563 0 2564 0 2565 
0 2566 0 2567 0 2568 0 2569 0 
2570 0 2571 0 2572 0 2573 0 2574 
0 2575 0 2600 0 2602 0 2604 0 
2605 0 2606 0 2607 0 2608 0 2609 
0 2610 0 2611 0 2612 0 2613 0 
2614 0 2615 0 2616 0 2617 0 2618 
0 2619 0 2620 0 2621 0 2622 0 
2623 0 2624 0 2625 0 2626 0 2627 
0 2628 0 2629 0 2630 0 2631 0 
2632 0 2633 0 2634 0 2635 0 2636 
0 2637 0 2638 0 2639 0 2640 0 
2641 0 2642 0 2643 0 2644 0 2645 
0 2646 0 2647 0 2648 0 2649 0 
2650 0 2651 0 2652 0 2653 0 2654 
0 2680 0 2682 0 2684 0 2685 0 
2686 0 2687 0 2688 0 2689 0 2690 
0 2691 0 2692 0 2693 0 2694 0 
2695 0 2696 0 2697 0 2698 0 2699 
0 2700 0 2701 0 2702 0 2703 0 
2704 0 2705 0 2706 0 2707 0 2708 
0 2709 0 2710 0 2711 0 2712 0 
2713 0 2714 0 2715 0 2716 0 2717 
0 2718 0 2719 0 2720 0 2721 0 
2722 0 2723 0 2724 0 2725 0 2726 
0 2727 0 2728 0 2729 0 2730 0 
2731 0 2732 0 2733 0 2734 0 2735 
0 2736 0 2737 0 2761 0 2762 0 
2763 0 2764 0 2765 0 2766 0 2767 
0 2768 0 2769 0 2770 0 2771 0 
2772 0 2773 0 2774 0 2775 0 2776 
0 2777 0 2778 0 2779 0 2780 0 
2781 0 2782 0 2783 0 2784 0 2785 
0 2786 0 2787 0 2788 0 2789 0 
2790 0 2791 0 2792 0 2793 0 2794 
0 2795 0 2796 0 2797 0 2798 0 
2799 0 2800 0 2801 0 2802 0 2803 
0 2804 0 2819 0 2820 0 2821 0 
2822 0 2823 0 2824 0 2825 0 2826 
0 2827 0 2828 0 2829 0 2830 0 
2831 0 2832 0 2833 0 2834 0 2835 
0 2836 0 2837 0 2838 0 2839 0 
2840 0 2841 0 2842 0 2843 0 2844 
0 2845 0 2846 0 2847 0 2848 0 
2849 0 2850 0 2851 0 2852 0 2853 
0 2854 0 2855 0 2856 0 2857 0 
2858 0 2859 0 2860 0 2861 0 2862 
0 2863 0 2864 0 2865 0 2866 0 
2867 0 2868 0 2869 0 2870 0 2871 
0 2872 0 2873 0 2874 0 2875 0 
2876 0 2877 0 2878 0 2879 0 2880 
0 2881 0 2882 0 2883 0 2884 0 
2885 0 2886 0 2887 0 2888 0 2889 
0 2890 0 2891 0 2892 0 2893 0 
2894 0 2895 0 2896 0 2897 0 2898 
0 2899 0 2900 0 2901 0 2902 0 
2903 0 2904 0 2905 0 2906 0 2907 
0 2908 0 2909 0 2910 0 2911 0 
2912 0 2913 0 2914 0 2915 0 2916 
0 2917 0 2918 0 2919 0 2920 0 
2921 0 2922 0 2923 0 2924 0 2925 
0 2926 0 2927 0 2928 0 2929 0 
2930 0 2931 0 2932 0 2933 0 2934 
0 2935 0 2936 0 2937 0 2938 0 
2939 0 2940 0 2941 0 2942 0 2943 
0 2944 0 2945 0 2946 0 2949 0 
2950 0 2953 0 2954 0 2995 0 2996 
0 2997 0 2998 0 2999 0 3000 0 
3001 0 3002 0 3003 0 3004 0 3005 
0 3006 0 3007 0 3008 0 3009 0 
3010 0 3011 0 3012 0 3013 0 3014 
0 3015 0 3016 0 3017 0 3018 0 
3019 0 3020 0 3021 0 3022 0 3023 
0 3024 0 3025 0 3026 0 3027 0 
3028 0 3029 0 3030 0 3031 0 3032 
0 3033 0 3034 0 3035 0 3036 0 
3037 0 3038 0 3055 0 3056 0 3057 
0 3058 0 3059 0 3060 0 3061 0 
3062 0 3063 0 3064 0 3065 0 3066 
0 3067 0 3068 0 3069 0 3070 0 
3071 0 3072 0 3073 0 3074 0 3075 
0 3076 0 3077 0 3078 0 3079 0 
3080 0 3081 0 3082 0 3083 0 3084 
0 3085 0 3086 0 3087 0 3088 0 
3089 0 3112 0 3113 0 3114 0 3115 
0 3116 0 3117 0 3118 0 3119 0 
3120 0 3121 0 3122 0 3123 0 3124 
0 3125 0 3126 0 3127 0 3128 0 
3129 0 3130 0 3131 0 3132 0 3133 
0 3134 0 3135 0 3136 0 3137 0 
3138 0 3139 0 3140 0 3141 0 3142 
0 3143 0 3146 0 3147 0 3157 0 
3158 0 3159 0 3160 0 3161 0 3162 
0 3163 0 3164 0 3165 0 3166 0 
3167 0 3168 0 3169 0 3170 0 3171 
0 3172 0 3173 0 3174 0 3175 0 
3176 0 3177 0 3178 0 3179 0 3180 
0 3181 0 3182 0 3183 0 3184 0 
3185 0 3186 0 3187 0 3189 0 3191 
0 3202 0 3203 0 3204 0 3205 0 
3206 0 3207 0 3208 0 3209 0 3210 
0 3211 0 3212 0 3213 0 3214 0 
3215 0 3216 0 3217 0 3218 0 3219 
0 3220 0 3221 0 3222 0 3223 0 
3224 0 3225 0 3226 0 3227 0 3228 
0 3229 0 3230 0 3231 0 3232 0 
3233 0 3261 0 3262 0 3263 0 3264 
0 3265 0 3266 0 3267 0 3268 0 
3269 0 3270 0 3271 0 3272 0 3273 
0 3274 0 3275 0 3276 0 3277 0 
3278 0 3279 0 3280 0 3281 0 3282 
0 3283 0 3284 0 3285 0 3286 0 
3287 0 3288 0 3289 0 3290 0 3316 
0 3317 0 3318 0 3319 0 3320 0 
3321 0 3322 0 3323 0 3324 0 3325 
0 3326 0 3327 0 3328 0 3329 0 
3330 0 3331 0 3332 0 3333 0 3334 
0 3335 0 3336 0 3337 0 3338 0 
3339 0 3340 0 3341 0 3342 0 3344 
0 3346 0 3368 0 3369 0 3370 0 
3371 0 3372 0 3373 0 3374 0 3375 
0 3376 0 3377 0 3378 0 3379 0 
3380 0 3381 0 3382 0 3383 0 3384 
0 3385 0 3386 0 3387 0 3388 0 
3389 0 3390 0 3391 0 3392 0 3393 
0 3394 0 3396 0 3398 0 3420 0 
3421 0 3422 0 3423 0 3424 0 3425 
0 3426 0 3427 0 3428 0 3429 0 
3430 0 3431 0 3432 0 3433 0 3434 
0 3435 0 3436 0 3437 0 3438 0 
3439 0 3440 0 3441 0 3442 0 3443 
0 3444 0 3445 0 3446 0 3448 0 
3450 0 3472 0 3473 0 3474 0 3475 
0 3476 0 3477 0 3478 0 3479 0 
3480 0 3481 0 3482 0 3483 0 3484 
0 3485 0 3486 0 3487 0 3488 0 
3489 0 3490 0 3491 0 3492 0 3493 
0 3494 0 3495 0 3496 0 3497 0 
3498 0 3500 0 3501 0 3504 0 3524 
0 3525 0 3526 0 3527 0 3528 0 
3529 0 3530 0 3531 0 3532 0 3533 
0 3534 0 3535 0 3536 0 3537 0 
3538 0 3539 0 3568 0 3569 0 3570 
0 3571 0 3572 0 3573 0 3574 0 
3575 0 3576 0 3577 0 3578 0 3579 
0 3580 0 3581 0 3582 0 3583 0 
3584 0 3585 0 3586 0 3587 0 3588 
0 3589 0 3590 0 3591 0 3592 0 
3593 0 3594 0 3595 0 3596 0 3597 
0 3598 0 3599 0 3600 0 3601 0 
3602 0 3603 0 3604 0 3605 0 3606 
0 3607 0 3608 0 3609 0 3610 0 
3611 0 3612 0 3613 0 3614 0 3615 
0 3616 0 3617 0 3618 0 3619 0 
3620 0 3621 0 3622 0 3623 0 3624 
0 3625 0 3626 0 3627 0 3628 0 
3629 0 3630 0 3631 0 3632 0 3633 
0 3634 0 3635 0 3636 0 3637 0 
3638 0 3639 0 3640 0 3641 0 3642 
0 3643 0 3644 0 3645 0 3646 0 
3647 0 3648 0 3649 0 3650 0 3651 
0 3652 0 3653 0 3654 0 3655 0 
3656 0 3657 0 3658 0 3659 0 3660 
0 3661 0 3662 0 3663 0 3664 0 
3665 0 3666 0 3667 0 3668 0 3669 
0 3670 0 3671 0 3672 0 3673 0 
3674 0 3675 0 3676 0 3677 0 3678 
0 3679 0 3680 0 3681 0 3682 0 
3683 0 3684 0 3685 0 3686 0 3687 
0 3688 0 3689 0 3690 0 3691 0 
3692 0 3693 0 3694 0 3695 0 3696 
0 3697 0 3698 0 3699 0 3700 0 
3701 0 3702 0 3703 0 3704 0 3705 
0 3706 0 3707 0 3708 0 3709 0 
3710 0 3711 0 3712 0 3713 0 3714 
0 3715 0 3716 0 3717 0 3718 0 
3719 0 3720 0 3721 0 3722 0 3723 
0 3724 0 3725 0 3726 0 3727 0 
3728 0 3729 0 3730 0 3731 0 3732 
0 3733 0 3734 0 3735 0 3736 0 
3737 0 3738 0 3739 0 3740 0 3741 
0 3742 0 3743 0 3744 0 3746 0 
3747 0 3749 0 3755 0 3799 0 3803 
0 3805 0 3806 0 3807 0 3808 0 
3809 0 3810 0 3811 0 3812 0 3813 
0 3814 0 3815 0 3816 0 3817 0 
3818 0 3819 0 3820 0 3821 0 3822 
0 3823 0 3824 0 3825 0 3826 0 
3827 0 3828 0 3829 0 3830 0 3831 
0 3832 0 3833 0 3834 0 3835 0 
3836 0 3837 0 3838 0 3839 0 3840 
0 3841 0 3842 0 3843 0 3844 0 
3845 0 3846 0 3847 0 3848 0 3849 
0 3850 0 3851 0 3852 0 3853 0 
3854 0 3855 0 3856 0 3857 0 3858 
0 3859 0 3860 0 3861 0 3862 0 
3863 0 3864 0 3893 0 3894 0 3895 
0 3896 0 3897 0 3898 0 3899 0 
3900 0 3901 0 3902 0 3903 0 3904 
0 3905 0 3906 0 3907 0 3908 0 
3909 0 3910 0 3911 0 3912 0 3913 
0 3914 0 3915 0 3916 0 3917 0 
3918 0 3919 0 3920 0 3921 0 3922 
0 3923 0 3924 0 3925 0 3926 0 
3927 0 3928 0 3929 0 3930 0 3931 
0 3934 0 3935 0 3973 0 3974 0 
3975 0 3976 0 3977 0 3978 0 3979 
0 3980 0 3981 0 3982 0 3983 0 
3984 0 3985 0 3986 0 3987 0 3988 
0 3989 0 3990 0 3991 0 3992 0 
3993 0 3994 0 3995 0 3996 0 3997 
0 3998 0 3999 0 4000 0 4001 0 
4002 0 4003 0 4004 0 4005 0 4006 
0 4007 0 4008 0 4009 0 4010 0 
4011 0 4012 0 4032 0 4033 0 4034 
0 4035 0 4036 0 4037 0 4038 0 
4039 0 4040 0 4041 0 4042 0 4043 
0 4044 0 4045 0 4046 0 4047 0 
4048 0 4049 0 4050 0 4051 0 4052 
0 4053 0 4054 0 4055 0 4056 0 
4057 0 4058 0 4059 0 4060 0 4061 
0 4062 0 4063 0 4064 0 4065 0 
4066 0 4067 0 4068 0 4069 0 4070 
0 4071 0 4126 0 4127 0 4128 0 
4129 0 4130 0 4131 0 4132 0 4133 
0 4134 0 4135 0 4136 0 4137 0 
4138 0 4139 0 4140 0 4141 0 4142 
0 4143 0 4144 0 4145 0 4146 0 
4147 0 4148 0 4149 0 4150 0 4151 
0 4152 0 4153 0 4154 0 4155 0 
4156 0 4157 0 4158 0 4159 0 4160 
0 4161 0 4162 0 4163 0 4165 0 
4167 0 4198 0 4199 0 4200 0 4201 
0 4202 0 4203 0 4204 0 4205 0 