# vtk DataFile Version 4.2
vtk output
ASCII
DATASET POLYDATA
FIELD FieldData 4
avtOriginalBounds 1 6 double
-32.528400421 32.528400421 -38.687198639 38.687198639 36.320800781 87.399597168 
MeshName 1 1 string
mesh

CYCLE 1 1 int
0 
TIME 1 1 double
0 
POINTS 556 float
20.7852 -4.70441 47.8622 18.4922 -6.00805 50.3786 18.246 -2.79098 49.7079 
20.0686 -4.99954 49.3938 19.6212 -2.16423 48.1162 17.605 -6.07562 51.3472 
-20.7852 4.70441 47.8622 -18.4922 6.00805 50.3786 -18.246 2.79098 49.7079 
-20.0686 4.99954 49.3938 -19.6212 2.16423 48.1162 -17.605 6.07562 51.3472 
26.5369 -9.50858 44.8938 24.2715 -11.3089 47.7993 23.8641 -8.67861 46.997 
24.9676 -7.88373 45.8372 22.8814 -9.46985 48.6457 23.0438 -12.379 49.1275 
-26.5369 9.50858 44.8938 -24.2715 11.3089 47.7993 -23.8641 8.67861 46.997 
-24.9676 7.88373 45.8372 -22.8814 9.46985 48.6457 -23.0438 12.379 49.1275 
25.7198 -7.49261 43.5114 23.2434 -6.26329 45.7751 24.1978 -5.72895 44.3215 
22.5238 -6.68467 47.7277 -25.7198 7.49261 43.5114 -23.2434 6.26329 45.7751 
-24.1978 5.72895 44.3215 -22.5238 6.68467 47.7277 2.29933 -38.5115 47.5526 
1.71336 -38.4241 46.8734 2.76436 -38.3664 46.5681 1.51339 -38.4001 46.723 
2.70457 -38.4715 47.257 1.90895 -38.3499 46.3913 -2.29933 38.5115 47.5526 
-1.71336 38.4241 46.8734 -2.76436 38.3664 46.5681 -1.51339 38.4001 46.723 
-2.70457 38.4715 47.257 -1.90895 38.3499 46.3913 21.1909 -7.52235 48.7965 
21.9361 -4.14082 46.3321 20.2539 -8.02536 50.0371 -21.1909 7.52235 48.7965 
-21.9361 4.14082 46.3321 -20.2539 8.02536 50.0371 4.18242 36.966 57.1869 
7.37195 36.4353 53.8213 3.79363 37.5819 54.9819 3.88211 37.4563 55.4838 
4.37394 37.3172 55.3937 4.33394 36.6824 58.0462 -4.18242 -36.966 57.1869 
-7.37195 -36.4353 53.8213 -3.79363 -37.5819 54.9819 -3.88211 -37.4563 55.4838 
-4.37394 -37.3172 55.3937 -4.33394 -36.6824 58.0462 17.5279 -2.81139 50.9167 
-17.5279 2.81139 50.9167 3.21705 32.8891 68.7265 4.87145 31.2784 70.5958 
4.73334 33.1426 66.9674 2.56301 32.8998 69.1452 4.64198 32.681 68.0217 
2.76545 32.6021 69.604 -3.21705 -32.8891 68.7265 -4.87145 -31.2784 70.5958 
-4.73334 -33.1426 66.9674 -2.56301 -32.8998 69.1452 -4.64198 -32.681 68.0217 
-2.76545 -32.6021 69.604 2.90633 -33.9247 68.9421 4.16039 -34.5076 67.8238 
4.23934 -32.5905 71.4159 2.15699 -33.6795 69.3438 2.17 -33.4005 69.8801 
4.23443 -34.1738 68.4931 -2.90633 33.9247 68.9421 -4.16039 34.5076 67.8238 
-4.23934 32.5905 71.4159 -2.15699 33.6795 69.3438 -2.17 33.4005 69.8801 
-4.23443 34.1738 68.4931 3.83602 -34.3282 68.1857 -3.83602 34.3282 68.1857 
21.4171 -10.4667 49.3173 25.5264 -10.3293 46.987 -21.4171 10.4667 49.3173 
-25.5264 10.3293 46.987 -15.6433 3.41373 51.8413 -15.3973 -5.0264e-15 51.026 
-17.1155 -0.191921 49.5238 -14.8507 3.38653 52.6736 15.6433 -3.41373 51.8413 
15.3973 -1.22247e-15 51.026 17.1155 0.191921 49.5238 14.8507 -3.38653 52.6736 
3.27555 -38.6519 52.0438 2.98582 -38.6734 50.4007 6.23277 -38.4399 52.9588 
3.44224 -38.6055 52.9891 3.93 -38.5936 52.876 3.03243 -38.6872 50.665 
-3.27555 38.6519 52.0438 -2.98582 38.6734 50.4007 -6.23277 38.4399 52.9588 
-3.44224 38.6055 52.9891 -3.93 38.5936 52.876 -3.03243 38.6872 50.665 
2.60791e-15 18.8822 42.5904 2.74966e-15 16.0402 44.9053 2.81101e-15 15.6803 45.9073 
-2.32762 17.6074 45.465 2.78638e-15 16.0532 45.5052 2.61229e-15 18.8061 42.6621 
2.32762 -17.6074 45.465 2.78639e-15 -16.0532 45.5052 2.6123e-15 -18.8061 42.6621 
2.6079e-15 -18.8822 42.5904 2.74964e-15 -16.0402 44.9053 2.811e-15 -15.6803 45.9073 
1.71689 32.9625 69.514 4.27375e-15 33.201 69.7956 4.50464e-15 31.1105 73.5664 
2.15574 32.924 69.3444 0.409514 32.8717 70.2813 0.411364 33.1326 69.7798 
-1.71689 -32.9625 69.514 4.27374e-15 -33.201 69.7956 4.50463e-15 -31.1105 73.5664 
-2.15574 -32.924 69.3444 -0.409514 -32.8717 70.2813 -0.411364 -33.1326 69.7798 
8.01964 -34.0765 68.1411 4.92441 -35.0889 66.5749 5.65222 -35.3081 66.0231 
-8.01964 34.0765 68.1411 -4.92441 35.0889 66.5749 -5.65222 35.3081 66.0231 
2.64667 -38.5958 48.4772 1.98848 -38.4613 47.136 3.13908 -38.5823 48.3904 
-2.64667 38.5958 48.4772 -1.98848 38.4613 47.136 -3.13908 38.5823 48.3904 
4.17373 36.5733 57.1376 -4.17373 -36.5733 57.1376 4.6859 35.941 60.0423 
4.82611 36.5236 57.9581 4.80436 35.6678 60.7141 -4.6859 -35.941 60.0423 
-4.82611 -36.5236 57.9581 -4.80436 -35.6678 60.7141 4.26641 32.9958 67.6899 
-4.26641 -32.9958 67.6899 2.17446 32.6454 69.8784 -2.17446 -32.6454 69.8784 
-16.6718 -6.62572e-15 49.5869 16.6718 5.53093e-16 49.5869 3.16241 38.2049 51.4021 
3.74102 37.6524 54.6836 3.50442 38.1655 50.785 3.03631 38.2696 50.687 
3.52789 38.171 50.5955 3.44841 37.9833 53.0241 -3.16241 -38.2049 51.4021 
-3.74102 -37.6524 54.6836 -3.50442 -38.1655 50.785 -3.03631 -38.2696 50.687 
-3.52789 -38.171 50.5955 -3.44841 -37.9833 53.0241 2.64667 38.3165 48.4772 
3.21088 38.0559 46.531 1.97191 38.2797 47.1179 3.13908 38.2357 48.3904 
2.4081 38.297 47.7507 -2.64667 -38.3165 48.4772 -3.21088 -38.0559 46.531 
-1.97191 -38.2797 47.1179 -3.13908 -38.2357 48.3904 -2.4081 -38.297 47.7507 
3.22448 32.45 68.721 -3.22448 -32.45 68.721 2.37847 38.2007 46.8219 
-2.37847 -38.2007 46.8219 -16.8349 -0.186229 49.9111 16.8349 0.186229 49.9111 
3.87825 -33.931 68.1421 -3.87825 33.931 68.1421 4.62098 -37.5457 59.6741 
3.94438 -38.3134 55.8369 6.69721 -37.9596 56.905 4.33401 -37.9233 58.0466 
5.29068 -37.258 60.5928 4.81636 -37.9311 57.9028 -4.62098 37.5457 59.6741 
-3.94438 38.3134 55.8369 -6.69721 37.9596 56.905 -4.33401 37.9233 58.0466 
-5.29068 37.258 60.5928 -4.81636 37.9311 57.9028 3.93985 37.8651 52.9318 
-3.93985 -37.8651 52.9318 4.92588 -34.6774 66.5715 5.16307 -35.3772 65.915 
-4.92588 34.6774 66.5715 -5.16307 35.3772 65.915 4.27374e-15 33.201 69.7956 
-1.77879 33.5757 69.4927 4.27375e-15 -33.201 69.7956 1.77879 -33.5757 69.4927 
3.52261 -38.6721 50.5655 -3.52261 38.6721 50.5655 1.71926 38.2728 46.8783 
2.3255 38.2929 47.5968 -1.71926 -38.2728 46.8783 -2.3255 -38.2929 47.5968 
3.3725 10.6175 48.8736 3.20781e-15 8.32689 52.3876 3.05752e-15 11.1912 49.9331 
3.2054e-15 8.99672 52.3483 3.20717e-15 8.34032 52.3772 3.05622e-15 11.2135 49.9121 
3.20541e-15 -8.99672 52.3483 3.20718e-15 -8.34032 52.3772 3.05623e-15 -11.2135 49.9121 
-3.3725 -10.6175 48.8736 3.2078e-15 -8.32689 52.3876 3.05751e-15 -11.1912 49.9331 
4.80523 -37.2484 60.719 -4.80523 37.2484 60.719 5.34019 -35.748 65.0314 
-5.34019 35.748 65.0314 8.97945 31.5907 65.5575 5.68695 33.205 65.8951 
-8.97945 -31.5907 65.5575 -5.68695 -33.205 65.8951 20.1204 -2.219 46.3319 
-20.1204 2.219 46.3319 1.49849 38.2682 46.7129 -1.49849 -38.2682 46.7129 
5.78575 -36.3571 63.4004 -5.78575 36.3571 63.4004 2.83239e-15 -38.2805 46.2564 
2.83238e-15 38.2805 46.2564 8.45949 33.4849 61.7613 5.20382 33.4841 65.7663 
-8.45949 -33.4849 61.7613 -5.20382 -33.4841 65.7663 2.90575e-15 13.6712 47.4544 
2.82426e-15 14.9187 46.1239 2.94547e-15 13.0458 48.1033 -2.88884 13.9381 48.6663 
1.71975 37.8932 46.8787 -1.71975 -37.8932 46.8787 2.83238e-15 37.9 46.2564 
2.69617e-15 37.7808 44.032 -0.7885 38.3294 46.3747 0.9536 38.1742 45.9024 
0.692866 38.2636 46.3473 2.83239e-15 -37.9 46.2564 2.69618e-15 -37.7808 44.032 
0.7885 -38.3294 46.3747 -0.9536 -38.1742 45.9024 -0.692866 -38.2636 46.3473 
3.03103e-15 -12.2121 49.5005 2.94548e-15 -13.0458 48.1033 2.90651e-15 -14.2182 47.4669 
2.99835e-15 -12.7541 48.9669 -2.74888 -13.2907 46.7365 2.99836e-15 12.7541 48.9669 
2.74888 13.2907 46.7365 3.03102e-15 12.2121 49.5005 2.9065e-15 14.2182 47.4669 
2.82427e-15 -14.9187 46.1239 3.87789 -38.3633 55.4598 4.36203 -38.3614 55.3261 
-3.87789 38.3633 55.4598 -4.36203 38.3614 55.3261 2.51303e-15 19.9919 41.0409 
2.63086e-15 17.8804 42.9653 2.51462e-15 19.9596 41.067 2.63377e-15 17.8331 43.0129 
-2.56268 19.6586 43.1716 2.51463e-15 -19.9596 41.067 2.63378e-15 -17.8331 43.0129 
2.56268 -19.6586 43.1716 2.51302e-15 -19.9919 41.0409 2.63085e-15 -17.8804 42.9653 
7.59566 -35.7676 64.5387 -7.59566 35.7676 64.5387 2.72587 -16.7997 45.9207 
-2.72587 16.7997 45.9207 5.29334 -36.351 63.4872 -5.29334 36.351 63.4872 
4.27375e-15 32.7735 69.7956 4.27374e-15 -32.7735 69.7956 2.88884 -13.9381 48.6663 
2.90574e-15 -13.6712 47.4544 4.50463e-15 -31.1106 73.5662 1.99534 -33.3545 69.9464 
4.50462e-15 31.1106 73.5662 -1.99534 33.3545 69.9464 2.83239e-15 37.9 46.2564 
2.83239e-15 38.2805 46.2564 2.60134e-15 37.2211 42.4831 2.83238e-15 -37.9 46.2564 
2.83238e-15 -38.2805 46.2564 2.60133e-15 -37.2211 42.4831 -2.92406 -16.1451 42.3749 
4.98433 32.8364 66.4323 4.98325 33.2801 66.435 5.29334 34.4139 63.4872 
-4.98433 -32.8364 66.4323 -4.98325 -33.2801 66.435 -5.29334 -34.4139 63.4872 
2.44075e-15 -21.6527 39.8605 2.42356 -22.8541 40.8277 -2.71964 -19.2095 39.4125 
2.43972e-15 -21.6796 39.8439 2.92486 37.0823 42.3862 -2.92486 -37.0823 42.3862 
2.67858e-15 37.3003 43.7445 2.57929e-15 36.6297 42.1231 2.26431 36.0042 40.8419 
-2.41385 37.5037 44.5873 2.602e-15 36.8136 42.4941 2.69493e-15 37.3837 44.0117 
7.15332 -37.0696 60.7804 -7.15332 37.0696 60.7804 1.71394 -38.0453 46.8739 
2.64667 -38.5958 48.4772 -1.71394 38.0453 46.8739 -2.64667 38.5958 48.4772 
7.92445 35.1355 57.8551 5.29674 35.4921 60.6272 -7.92445 -35.1355 57.8551 
-5.29674 -35.4921 60.6272 2.49494e-15 21.1135 40.7455 -2.15172 20.6127 42.6637 
2.50904e-15 20.7941 40.976 2.15172 -20.6127 42.6637 2.50905e-15 -20.7941 40.976 
2.49493e-15 -21.1135 40.7455 6.80209 37.2242 49.6608 -6.80209 -37.2242 49.6608 
3.12904e-15 -10.487 51.1012 3.15039e-15 -10.0851 51.45 -2.888 -10.5691 49.7883 
3.1504e-15 10.0851 51.45 2.888 10.5691 49.7883 3.12903e-15 10.487 51.1012 
2.47061e-15 35.8783 40.3482 2.44831e-15 34.975 39.984 -2.13485 35.4619 41.2457 
2.4769e-15 35.4562 40.451 2.53262e-15 36.1766 41.361 2.13485 -35.4619 41.2457 
2.47691e-15 -35.4562 40.451 2.53263e-15 -36.1766 41.361 2.57928e-15 -36.6297 42.1231 
2.4706e-15 -35.8783 40.3482 2.4483e-15 -34.975 39.984 2.92406 16.1451 42.3749 
2.69494e-15 -37.3837 44.0117 3.83969 32.4856 68.1819 -3.83969 -32.4856 68.1819 
-3.03929 10.8891 51.2009 3.03929 -10.8891 51.2009 3.41367e-15 -1.9347 55.7494 
[...]
CELL_DATA 1390
SCALARS mesh_quality/area float
LOOKUP_TABLE default
5.3864 4.7238 5.3864 4.7238 4.8012 4.92476 4.8012 4.92476 4.88468 
5.1661 4.88468 5.1661 0.450812 0.306355 0.450812 0.306355 4.83128 4.46007 
4.83128 4.46007 4.56037 0.702696 4.56037 0.702696 5.3864 5.63855 5.3864 
5.63855 3.41898 0.691855 3.41898 0.691855 2.60296 0.634477 2.60296 0.634477 
2.60296 0.553175 2.60296 0.553175 5.08297 5.30982 5.08297 5.30982 4.51631 
4.38097 4.51631 4.38097 5.80076 5.20537 5.80076 5.20537 2.30282 0.590524 
2.30282 0.590524 1.00728 5.08457 5.08457 1.00728 4.61837 5.1661 4.61837 
5.1661 4.61837 4.31064 4.61837 4.31064 4.88468 4.31064 4.88468 4.31064 
4.8012 4.38097 4.8012 4.38097 4.51631 4.92476 4.51631 4.92476 3.77523 
0.50472 3.77523 0.50472 5.08297 4.46007 5.08297 4.46007 2.84476 0.785367 
2.84476 0.785367 0.389394 0.381366 0.389394 0.381366 0.455047 0.702696 0.455047 
0.702696 6.13077 0.75469 6.13077 0.75469 4.83128 5.30982 4.83128 5.30982 
0.450812 0.120725 0.450812 0.120725 3.41898 0.660531 3.41898 0.660531 3.77523 
0.546471 3.77523 0.546471 2.94279 5.20537 2.94279 5.20537 0.780585 0.609067 
0.780585 0.609067 1.55323 0.0971111 1.55323 0.0971111 0.511031 0.660531 0.511031 
0.660531 1.55323 0.43672 1.55323 0.43672 4.56037 0.711402 4.56037 0.711402 
2.94279 0.844688 2.94279 0.844688 0.364006 0.553175 0.364006 0.553175 5.01587 
0.703346 5.01587 0.703346 0.780585 0.655341 0.780585 0.655341 0.302298 0.696532 
0.302298 0.696532 4.82748 0.558599 4.82748 0.558599 2.30282 0.58716 2.30282 
0.58716 6.13077 0.711402 6.13077 0.711402 0.650476 0.43672 0.650476 0.43672 
6.73748 0.767529 0.767529 6.73748 5.01587 0.699059 5.01587 0.699059 0.330103 
0.696532 0.330103 0.696532 9.62972 0.677122 9.62972 0.677122 5.80076 0.844688 
5.80076 0.844688 4.82748 0.634477 4.82748 0.634477 2.992 0.785367 2.992 
0.785367 5.19646 5.63855 5.19646 5.63855 2.45512 0.691855 2.45512 0.691855 
0.650476 0.154504 0.650476 0.154504 2.992 0.700091 2.992 0.700091 0.598959 
0.306355 0.598959 0.306355 10.1201 0.627477 10.1201 0.627477 6.24965 4.18112 
4.82748 0.553175 4.82748 0.553175 0.178436 0.0971111 0.178436 0.0971111 0.423189 
0.331287 0.423189 0.331287 0.553757 6.3107 6.3107 0.553757 0.545115 6.3107 
6.3107 0.545115 0.598959 0.331287 0.598959 0.331287 5.01587 0.663024 5.01587 
0.663024 0.568131 4.17417 4.17417 0.568131 4.60025 0.700091 4.60025 0.700091 
6.37746 0.6268 0.6268 6.37746 0.650476 0.0971111 0.650476 0.0971111 1.88516 
0.700091 1.88516 0.700091 0.37189 0.50472 0.37189 0.50472 0.738892 3.9472 
3.9472 0.738892 0.450812 0.381366 0.450812 0.381366 5.01587 0.66582 5.01587 
0.66582 9.1546 0.684609 9.1546 0.684609 2.992 0.696532 2.992 0.696532 
0.717865 0.331287 0.717865 0.331287 4.17417 4.76487 0.659169 0.627477 0.659169 
0.627477 10.1201 0.677122 10.1201 0.677122 3.15119 0.331287 3.15119 0.331287 
5.19646 4.7238 5.19646 4.7238 2.95454 3.36314 4.37439 0.331287 4.37439 
0.331287 4.82748 0.101586 4.82748 0.101586 1.988 1.95797 4.66343 0.699059 
4.66343 0.699059 0.169931 0.36075 0.169931 0.36075 7.29946 0.763078 7.29946 
0.763078 0.705056 3.19212 3.19212 0.705056 4.66343 0.703346 4.66343 0.703346 
7.49336 0.655341 7.49336 0.655341 0.444202 5.50669 5.50669 0.444202 0.450812 
0.36075 0.450812 0.36075 0.664804 1.27095 1.27095 0.664804 4.82748 0.684609 
4.82748 0.684609 6.13077 0.702696 6.13077 0.702696 5.32564 0.590524 5.32564 
0.590524 7.98401 0.75469 7.98401 0.75469 0.48297 0.627477 0.48297 0.627477 
0.573694 4.76487 4.76487 0.573694 0.330103 0.639584 0.330103 0.639584 5.73542 
0.440443 0.440443 5.73542 0.276496 0.627477 0.276496 0.627477 7.85182 0.785367 
7.85182 0.785367 0.814974 5.93331 5.93331 0.814974 3.41898 0.627477 3.41898 
0.627477 0.302882 6.3818 6.3818 0.302882 5.32564 0.58716 5.32564 0.58716 
8.85827 0.546471 8.85827 0.546471 0.570416 0.0971111 0.570416 0.0971111 4.54085 
0.485254 0.485254 4.54085 0.63859 0.558599 0.63859 0.558599 3.41898 0.677122 
3.41898 0.677122 0.806011 0.684609 0.806011 0.684609 0.805969 0.684609 0.805969 
0.684609 0.433036 4.0884 4.0884 0.433036 0.422004 2.95454 2.95454 0.422004 
0.364006 0.785367 0.364006 0.785367 0.46434 0.627477 0.46434 0.627477 1.95797 
0.358739 0.358739 1.95797 0.347006 0.331287 0.347006 0.331287 0.664804 1.43554 
1.43554 0.664804 0.178123 0.0971111 0.178123 0.0971111 4.56037 0.66325 4.56037 
0.66325 0.221879 3.08666 3.08666 0.221879 3.77523 0.684609 3.77523 0.684609 
5.34995 0.627477 5.34995 0.627477 0.312186 1.988 1.988 0.312186 2.992 
0.639584 2.992 0.639584 0.347006 0.154504 0.347006 0.154504 5.23446 0.663024 
5.23446 0.663024 3.3712 0.219291 0.219291 3.3712 0.723467 2.68539 2.68539 
0.723467 7.98401 0.763078 7.98401 0.763078 0.65551 0.655341 0.65551 0.655341 
3.77523 0.558599 3.77523 0.558599 0.723467 2.41571 2.41571 0.723467 4.54085 
3.96094 3.96094 4.54085 0.564367 6.02158 6.02158 0.564367 2.45512 0.660531 
2.45512 0.660531 3.97343 6.3107 0.472132 3.14071 3.14071 0.472132 0.426376 
3.36314 3.36314 0.426376 5.73542 0.331287 5.73542 0.331287 0.127275 0.627477 
0.127275 0.627477 0.169931 0.120725 0.169931 0.120725 8.34878 0.66325 8.34878 
0.66325 0.655562 1.27199 1.27199 0.655562 0.664804 1.21731 1.21731 0.664804 
2.45512 0.546471 2.45512 0.546471 7.49336 0.609067 7.49336 0.609067 0.347941 
0.331287 0.347941 0.331287 0.63859 0.553175 0.63859 0.553175 0.655562 1.28339 
1.28339 0.655562 0.647949 0.558599 0.647949 0.558599 0.598959 0.120725 0.598959 
0.120725 0.289463 2.92116 2.92116 0.289463 0.541487 2.52292 2.52292 0.541487 
4.18112 0.728158 0.728158 4.18112 4.18112 6.02158 0.178436 0.154504 0.178436 
0.154504 7.49336 0.66325 7.49336 0.66325 0.439127 4.41507 4.41507 0.439127 
0.728158 6.37746 6.37746 0.728158 0.338678 4.04702 4.04702 0.338678 0.806011 
0.558599 0.806011 0.558599 0.805969 0.558599 0.805969 0.558599 0.252596 3.08666 
3.08666 0.252596 0.311324 6.3818 6.3818 0.311324 0.0908812 0.655341 0.0908812 
0.655341 0.346456 0.120725 0.346456 0.120725 0.503396 3.96094 3.96094 0.503396 
0.312186 3.15861 3.15861 0.312186 5.7997 0.381375 0.381375 5.7997 5.7997 
0.441601 0.441601 5.7997 0.924022 1.48309 1.48309 0.924022 0.441601 2.802 
2.802 0.441601 0.221879 2.98395 2.98395 0.221879 7.29946 0.75469 7.29946 
0.75469 0.367397 0.660531 0.367397 0.660531 0.475638 2.615 2.615 0.475638 
5.7997 0.382078 0.382078 5.7997 0.294668 2.17927 2.17927 0.294668 0.482889 
4.08815 4.08815 0.482889 0.345097 0.120725 0.345097 0.120725 0.252596 1.988 
1.988 0.252596 0.705056 2.52292 2.52292 0.705056 3.3712 0.252596 0.252596 
3.3712 0.377931 0.50472 0.377931 0.50472 0.439127 2.83953 2.83953 0.439127 
2.80304 0.20699 0.20699 2.80304 0.462042 3.01734 3.01734 0.462042 0.503152 
4.04702 4.04702 0.503152 0.278759 1.95797 1.95797 0.278759 5.785 0.462042 
0.462042 5.785 3.61184 6.3107 0.451371 2.802 2.802 0.451371 0.358739 
1.43554 1.43554 0.358739 0.472132 4.22976 4.22976 0.472132 0.665759 0.609067 
0.665759 0.609067 0.541487 2.17927 2.17927 0.541487 0.441601 3.14071 3.14071 
0.441601 0.367397 0.50472 0.367397 0.50472 0.511031 0.627477 0.511031 0.627477 
0.924022 1.92791 1.92791 0.924022 0.346456 0.331287 0.346456 0.331287 0.451371 
3.01734 3.01734 0.451371 0.0755936 0.655341 0.0755936 0.655341 0.518913 2.21719 
2.21719 0.518913 0.441678 4.08815 4.08815 0.441678 2.80304 0.208854 0.208854 
2.80304 0.613071 6.83715 6.83715 0.613071 0.177825 0.0971111 0.177825 0.0971111 
0.504482 2.21719 2.21719 0.504482 0.655562 1.21731 1.21731 0.655562 4.22976 
3.19212 0.65551 0.609067 0.65551 0.609067 0.302298 0.785367 0.302298 0.785367 
1.55323 0.609067 1.55323 0.609067 0.504482 2.27201 2.27201 0.504482 2.45512 
0.50472 2.45512 0.50472 0.738892 4.18112 4.18112 0.738892 0.245555 4.41507 
4.41507 0.245555 2.60296 0.785367 2.60296 0.785367 0.506573 0.655341 0.506573 
0.655341 0.738892 5.93331 5.93331 0.738892 0.221879 2.80304 2.80304 0.221879 
4.44029 0.36799 0.36799 4.44029 0.364006 0.696532 0.364006 0.696532 0.610399 
0.702696 0.610399 0.702696 0.462042 2.83953 2.83953 0.462042 4.54085 0.324278 
0.324278 4.54085 4.56037 0.655341 4.56037 0.655341 3.24302 0.154504 3.24302 
0.154504 0.564367 6.24965 6.24965 0.564367 0.37189 0.558599 0.37189 0.558599 
3.24849 0.245555 0.245555 3.24849 0.391506 0.785367 0.391506 0.785367 0.312973 
0.639584 0.312973 0.639584 3.24849 0.248515 0.248515 3.24849 4.37439 0.154504 
4.37439 0.154504 0.80996 3.97343 3.97343 0.80996 0.805969 0.101586 0.805969 
0.101586 0.806011 0.101586 0.806011 0.101586 0.177684 0.0971111 0.177684 0.0971111 
0.598106 0.702696 0.598106 0.702696 0.294668 2.27201 2.27201 0.294668 5.785 
0.393471 0.393471 5.785 2.60296 0.696532 2.60296 0.696532 5.785 0.391028 
0.391028 5.785 0.485254 6.73748 6.73748 0.485254 0.503152 4.0884 4.0884 
0.503152 0.21516 3.24849 3.24849 0.21516 3.96094 0.814974 0.814974 3.96094 
0.265053 0.553175 0.265053 0.553175 0.503396 2.68539 2.68539 0.503396 0.518913 
2.1329 2.1329 0.518913 5.50669 0.433036 0.433036 5.50669 5.50669 0.553757 
0.553757 5.50669 0.40829 2.39021 2.39021 0.40829 2.92116 0.338678 0.338678 
2.92116 0.767529 6.24965 6.24965 0.767529 0.613071 4.22976 4.22976 0.613071 
6.77151 0.609067 6.77151 0.609067 1.00728 3.61184 3.61184 1.00728 3.77523 
0.101586 3.77523 0.101586 0.168839 0.36075 0.168839 0.36075 0.289463 6.3818 
6.3818 0.289463 0.372533 0.660531 0.372533 0.660531 0.441678 2.82314 2.82314 
0.441678 4.44029 0.35106 0.35106 4.44029 7.49336 0.614408 7.49336 0.614408 
5.32564 0.663024 5.32564 0.663024 0.281601 6.3818 6.3818 0.281601 0.924022 
1.28339 1.28339 0.924022 4.44029 0.294216 0.294216 4.44029 0.567869 0.609067 
0.567869 0.609067 0.40829 2.82314 2.82314 0.40829 0.0908812 0.609067 0.0908812 
0.609067 0.485254 4.04702 4.04702 0.485254 0.324932 0.639584 0.324932 0.639584 
0.482889 2.81877 2.81877 0.482889 5.50669 2.81877 5.32564 0.66582 5.32564 
0.66582 0.455047 0.655341 0.455047 0.655341 6.37746 4.49893 4.08815 0.503396 
0.503396 4.08815 0.245555 2.98395 2.98395 0.245555 0.324278 2.92116 2.92116 
0.324278 3.19212 1.00728 1.00728 3.19212 0.767529 4.0884 4.0884 0.767529 
0.651023 3.97343 3.97343 0.651023 0.639657 0.609067 0.639657 0.609067 0.723467 
2.82314 2.82314 0.723467 7.57607 0.614408 7.57607 0.614408 0.564367 6.3107 
6.3107 0.564367 4.49893 0.863142 0.863142 4.49893 0.526046 5.50669 5.50669 
0.526046 6.77151 0.614408 6.77151 0.614408 0.924022 2.1329 2.1329 0.924022 
0.80996 3.61184 3.61184 0.80996 0.651023 2.81877 2.81877 0.651023 6.37746 
1.00728 1.00728 6.37746 0.475638 2.39021 2.39021 0.475638 3.97343 0.738892 
0.738892 3.97343 5.95095 0.302882 0.302882 5.95095 0.814974 2.81877 2.81877 
0.814974 0.758625 2.39021 2.39021 0.758625 0.6268 4.17417 4.17417 0.6268 
0.426376 4.76487 4.76487 0.426376 5.7997 0.451371 0.451371 5.7997 0.728158 
3.61184 3.61184 0.728158 4.49893 0.573694 0.573694 4.49893 5.7997 0.393471 
0.393471 5.7997 4.76487 0.613071 0.613071 4.76487 3.36314 0.382078 0.382078 
3.36314 0.773009 2.59428 2.59428 0.773009 0.568131 2.95454 2.95454 0.568131 
0.324278 5.95095 5.95095 0.324278 0.422004 2.59428 2.59428 0.422004 0.705056 
2.95454 2.95454 0.705056 5.785 0.35106 0.35106 5.785 5.785 0.439127 
0.439127 5.785 0.610225 2.59195 2.59195 0.610225 4.49893 0.900311 0.900311 
4.49893 3.36314 0.472132 0.472132 3.36314 0.541487 2.59428 2.59428 0.541487 
0.587428 2.29625 2.29625 0.587428 0.248515 4.44029 4.44029 0.248515 0.294668 
2.59428 2.59428 0.294668 0.3858 1.69077 1.69077 0.3858 2.59195 0.504482 
0.504482 2.59195 4.44029 0.298256 0.298256 4.44029 3.24849 0.20699 0.20699 
3.24849 2.59195 0.773009 0.773009 2.59195 3.24849 0.222956 0.222956 3.24849 
1.39646 0.338111 0.338111 1.39646 0.518913 2.29625 2.29625 0.518913 4.47508 
0.302882 0.302882 4.47508 2.80304 0.219291 0.219291 2.80304 2.80304 1.55397 
1.55397 0.389585 0.389585 1.55397 0.723467 2.615 2.615 0.723467 2.80304 
0.228933 0.228933 2.80304 0.610225 2.29625 2.29625 0.610225 0.924022 1.69077 
1.69077 0.924022 1.39646 0.655562 0.655562 1.39646 0.664804 1.55397 1.55397 
0.664804 0.587428 1.69077 1.69077 0.587428 0.3858 1.39646 1.39646 0.3858 
1.55397 0.338111 0.338111 1.55397 
